================================================================================
| EXCITING NEON started                                                        =
| version hash id: 261fb5e9d369e52c55a7e578395b3a9dbc08f77b                    =
|                                                                              =
| compiler: ifort (IFORT) 19.0.5.281 20190815                                  =
|                                                                              =
| MPI version using     12 processor(s)                                        =
| |  using MPI-2 features                                                      =
|                                                                              =
| Date (DD-MM-YYYY) : 20-03-2024                                               =
| Time (hh:mm:ss)   : 05:32:30                                                 =
|                                                                              =
| All units are atomic (Hartree, Bohr, etc.)                                   =
================================================================================
 
********************************************************************************
* Structural optimisation starting from atomic densities                       *
********************************************************************************
 
++++++++++++++++++++++++++++++++++++++++++++++++++++++++++++++++++++++++++++++++
+ Starting initialization                                                      +
++++++++++++++++++++++++++++++++++++++++++++++++++++++++++++++++++++++++++++++++
 
 Lattice vectors (cartesian) :
      6.0471235988      0.0000000000      0.0000000000
      0.0000000000      6.0471235988      0.0000000000
      0.0000000000      0.0000000000      6.0471235988
 
 Reciprocal lattice vectors (cartesian) :
      1.0390370239      0.0000000000      0.0000000000
      0.0000000000      1.0390370239      0.0000000000
      0.0000000000      0.0000000000      1.0390370239
 
 Unit cell volume                           :     221.1294247191
 Brillouin zone volume                      :       1.1217422275
 
 Automatic determination of muffin-tin radii :
     global rmt scale                       :       0.9500000000
 
 Species :    1 (Cl)
     parameters loaded from                 :    Cl.xml
     name                                   :    chlorine
     nuclear charge                         :     -17.00000000
     electronic charge                      :      17.00000000
     atomic mass                            :   64626.31859000
     muffin-tin radius                      :       2.40980000
     # of radial points in muffin-tin       :     600
 
     atomic positions (lattice) :
       1 :   0.00000000  0.00000000  0.00000000
 
 Species :    2 (K)
     parameters loaded from                 :    K.xml
     name                                   :    potassium
     nuclear charge                         :     -19.00000000
     electronic charge                      :      19.00000000
     atomic mass                            :   71271.84085000
     muffin-tin radius                      :       2.56530000
     # of radial points in muffin-tin       :     800
 
     atomic positions (lattice) :
       1 :   0.50000000  0.50000000  0.50000000
 
 Total number of atoms per unit cell        :       2
 
 Spin treatment                             :    spin-unpolarised
 
 Number of Bravais lattice symmetries       :      48
 Number of crystal symmetries               :      48
 
 k-point grid                               :       4    4    4
 Total number of k-points                   :      10
 k-point set is reduced with crystal symmetries
 
 R^MT_min * |G+k|_max (rgkmax)              :       3.06544590
 APWprecision                               :       0.30000000
 Species with R^MT_min                      :       1 (Cl)
 Maximum |G+k| for APW functions            :       1.27207482
 Maximum |G| for potential and density      :      30.00000000
 Polynomial order for pseudochg. density    :       9
 
 G-vector grid sizes                        :      60    60    60
 Total number of G-vectors                  :  100737
 
 Maximum angular momentum used for
     APW functions                          :      10
     computing H and O matrix elements      :      10
     potential and density                  :      10
     inner part of muffin-tin               :       2
 
 Total nuclear charge                       :     -36.00000000
 Total electronic charge                    :      36.00000000
 Total core charge                          :      12.00000000
 Total valence charge                       :      24.00000000
 
 Effective Wigner radius, r_s               :       1.13610501
 
 Number of empty states                     :      20
 Total number of valence states             :      33
 
 Maximum Hamiltonian size                   :      62
 Maximum number of plane-waves              :      10
 Total number of local-orbitals             :      52
 
 Exchange-correlation type                  :      20
     Perdew-Burke-Ernzerhof, Phys. Rev. Lett. 77, 3865 (1996)
     Generalised gradient approximation (GGA)
 
 Smearing scheme                            :    Fermi-Dirac
 Smearing width                             :       0.00367500
 
 Using multisecant Broyden potential mixing
 
++++++++++++++++++++++++++++++++++++++++++++++++++++++++++++++++++++++++++++++++
+ Ending initialization                                                        +
++++++++++++++++++++++++++++++++++++++++++++++++++++++++++++++++++++++++++++++++
 
********************************************************************************
* Groundstate module started                                                   *
********************************************************************************
 Output level for this task is set to high
 
++++++++++++++++++++++++++++++++++++++++++++++++++++++++++++++++++++++++++++++++
+ Self-consistent loop started                                                 +
++++++++++++++++++++++++++++++++++++++++++++++++++++++++++++++++++++++++++++++++
 Density and potential initialised from atomic data
 
 
++++++++++++++++++++++++++++++++++++++++++++++++++++++++++++++++++++++++++++++++
+ SCF iteration number :    1                                                  +
++++++++++++++++++++++++++++++++++++++++++++++++++++++++++++++++++++++++++++++++
