  MPI-parallelism will be employed.
------------------------------------------------------------
          Invoking FHI-aims ...
          Version 071914_7
          Compiled on 2016/06/08 at 11:32:45 on host eos02.

          When using FHI-aims, please cite the following reference:

          Volker Blum, Ralf Gehrke, Felix Hanke, Paula Havu,
          Ville Havu, Xinguo Ren, Karsten Reuter, and Matthias Scheffler,
          'Ab Initio Molecular Simulations with Numeric Atom-Centered Orbitals: FHI-aims',
          Computer Physics Communications 180, 2175-2196 (2009)

          For any questions about FHI-aims, please visit the aimsclub website
          with its forums and wiki. Contributions to both the forums and the
          wiki are warmly encouraged - they are for you, and everyone is welcome there.

------------------------------------------------------------

  Date     :  20160712, Time     :  195934.112
  Time zero on CPU 1             :   0.632039000000000E+00  s.
  Internal wall clock time zero  :           237585574.112  s.

  Using       64 parallel tasks.
  Task        0 on host eos019 reporting.
  Task        1 on host eos019 reporting.
  Task        2 on host eos019 reporting.
  Task        3 on host eos019 reporting.
  Task        4 on host eos019 reporting.
  Task        5 on host eos019 reporting.
  Task        6 on host eos019 reporting.
  Task        7 on host eos019 reporting.
  Task        8 on host eos019 reporting.
  Task        9 on host eos019 reporting.
  Task       10 on host eos019 reporting.
  Task       11 on host eos019 reporting.
  Task       12 on host eos019 reporting.
  Task       13 on host eos019 reporting.
  Task       14 on host eos019 reporting.
  Task       15 on host eos019 reporting.
  Task       16 on host eos019 reporting.
  Task       17 on host eos019 reporting.
  Task       18 on host eos019 reporting.
  Task       19 on host eos019 reporting.
  Task       20 on host eos019 reporting.
  Task       21 on host eos019 reporting.
  Task       22 on host eos019 reporting.
  Task       23 on host eos019 reporting.
  Task       24 on host eos019 reporting.
  Task       25 on host eos019 reporting.
  Task       26 on host eos019 reporting.
  Task       27 on host eos019 reporting.
  Task       28 on host eos019 reporting.
  Task       29 on host eos019 reporting.
  Task       30 on host eos019 reporting.
  Task       31 on host eos019 reporting.
  Task       32 on host eos240 reporting.
  Task       33 on host eos240 reporting.
  Task       34 on host eos240 reporting.
  Task       35 on host eos240 reporting.
  Task       36 on host eos240 reporting.
  Task       37 on host eos240 reporting.
  Task       38 on host eos240 reporting.
  Task       39 on host eos240 reporting.
  Task       40 on host eos240 reporting.
  Task       41 on host eos240 reporting.
  Task       42 on host eos240 reporting.
  Task       43 on host eos240 reporting.
  Task       44 on host eos240 reporting.
  Task       45 on host eos240 reporting.
  Task       46 on host eos240 reporting.
  Task       47 on host eos240 reporting.
  Task       48 on host eos240 reporting.
  Task       49 on host eos240 reporting.
  Task       50 on host eos240 reporting.
  Task       51 on host eos240 reporting.
  Task       52 on host eos240 reporting.
  Task       53 on host eos240 reporting.
  Task       54 on host eos240 reporting.
  Task       55 on host eos240 reporting.
  Task       56 on host eos240 reporting.
  Task       57 on host eos240 reporting.
  Task       58 on host eos240 reporting.
  Task       59 on host eos240 reporting.
  Task       60 on host eos240 reporting.
  Task       61 on host eos240 reporting.
  Task       62 on host eos240 reporting.
  Task       63 on host eos240 reporting.

  Performing system and environment tests:
  | Environment variable OMP_NUM_THREADS correctly set to 1.
  | Stacksize not measured: no C compiler
  | Checking for scalapack...
  | Testing pdtran()...
  | All pdtran() tests passed.

  Obtaining array dimensions for all initial allocations:
  
  -----------------------------------------------------------------------
  Parsing control.in (first pass over file, find array dimensions only).
  The contents of control.in will be repeated verbatim below
  unless switched off by setting 'verbatim_writeout .false.' .
  in the first line of control.in .
  -----------------------------------------------------------------------
  
  #=====================================================
  #FHI-aims file: /eos/scratch/biebj/binaries/binaries_unrelaxed/pbe/light/minimal/atomic_zora/4/04_Be/control.in
  #Created using the Atomic Simulation Environment (ASE)
  #
  #List of parameters used to initialize the calculator:
  #=====================================================
  charge_mix_param                   0.01
  sc_iter_limit                      8000
  relativistic                       atomic_zora scalar
  compute_analytical_stress          .true.
  sc_accuracy_rho                    1e-05
  charge                             0.0
  dos_kgrid_factors                  3 3 3
  xc                                 pbe
  override_relativity                .true.
  k_grid                             6 6 6
  preconditioner                     kerker 1.5
  n_max_pulay                        10
  occupation_type                    fermi 0.1
  spin                               none
  compute_forces                     .true.
  override_illconditioning           .true.
  mixer                              pulay
  sc_accuracy_etot                   1e-05
  sc_accuracy_eev                    1e-05
  sc_accuracy_forces                 0.0001
  output                             atom_proj_dos -20 10 1000 0.01
  output                             dos -20 10 1000 0.01
  output                             quadrupole
  output                             hirshfeld
  output                             band 0.0 0.0 0.0 0.5 0.0 0.5 20 \Gamma X
  output                             band 0.5 0.0 0.5 0.5 0.25 0.75 20 X W
  output                             band 0.5 0.25 0.75 0.375 0.375 0.75 20 W K
  output                             band 0.375 0.375 0.75 0.0 0.0 0.0 20 K \Gamma
  output                             band 0.0 0.0 0.0 0.5 0.5 0.5 20 \Gamma L
  output                             band 0.5 0.5 0.5 0.625 0.25 0.625 20 L U
  output                             band 0.625 0.25 0.625 0.5 0.25 0.75 20 U W
  output                             band 0.5 0.25 0.75 0.5 0.5 0.5 20 W L
  output                             band 0.5 0.5 0.5 0.375 0.375 0.75 20 L K
  output                             band 0.625 0.25 0.625 0.5 0.0 0.5 20 U X
  #=======================================================
  
  ################################################################################
  #
  #  FHI-aims code project
  #  VB, Fritz-Haber Institut, 2009
  #
  #  Suggested "light" defaults for S atom (to be pasted into control.in file)
  #  Be sure to double-check any results obtained with these settings for post-processing,
  #  e.g., with the "tight" defaults and larger basis sets.
  #
  ################################################################################
    species        S
  #     global species definitions
      nucleus             16
      mass                32.065
  #
      l_hartree           4
  #
      cut_pot             3.5          1.5  1.0
      basis_dep_cutoff    1e-4
  #
      radial_base         44 5.0
      radial_multiplier   1
      angular_grids       specified
        division   0.4665  110
        division   0.5810  194
        division   0.7139  302
  #      division   0.8274  434
  #      division   0.9105  590
  #      division   1.0975  770
  #      division   1.2028  974
  #      outer_grid  974
        outer_grid  302
  ################################################################################
  #
  #  Definition of "minimal" basis
  #
  ################################################################################
  #     valence basis states
      valence      3  s   2.
      valence      3  p   4.
  #     ion occupancy
      ion_occ      3  s   1.
      ion_occ      3  p   3.
  ################################################################################
  #
  #  Suggested additional basis functions. For production calculations,
  #  uncomment them one after another (the most important basis functions are
  #  listed first).
  #
  #  Constructed for dimers: 1.6 A, 1.9 A, 2.5 A, 3.25 A, 4.0 A
  #
  ################################################################################
  #  "First tier" - improvements: -652.81 meV to -45.53 meV
  #     ionic 3 d auto
  #     hydro 2 p 1.8
  #     hydro 4 f 7
  #     ionic 3 s auto
  #  "Second tier" - improvements: -30.20 meV to -1.74 meV
  #     hydro 4 d 6.2
  #     hydro 5 g 10.8
  #     hydro 4 p 4.9
  #     hydro 5 f 10
  #     hydro 1 s 0.8
  #  "Third tier" - improvements: -1.04 meV to -0.20 meV
  #     hydro 3 d 3.9
  #     hydro 3 d 2.7
  #     hydro 5 g 12
  #     hydro 4 p 10.4
  #     hydro 5 f 12.4
  #     hydro 2 s 1.9
  #  "Fourth tier" - improvements: -0.35 meV to -0.06 meV
  #     hydro 4 d 10.4
  #     hydro 4 p 7.2
  #     hydro 4 d 10
  #     hydro 5 g 19.2
  #     hydro 4 s 12
  #
  ################################################################################
  #
  #  FHI-aims code project
  #  VB, Fritz-Haber Institut, 2009
  #
  #  Suggested "light" defaults for Be atom (to be pasted into control.in file)
  #  Be sure to double-check any results obtained with these settings for post-processing,
  #  e.g., with the "tight" defaults and larger basis sets.
  #
  ################################################################################
    species        Be
  #     global species definitions
      nucleus             4
      mass                9.012182
  #
      l_hartree           4
  #
      cut_pot             3.5  1.5  1.0
      basis_dep_cutoff    1e-4
  #
      radial_base         31 5.0
      radial_multiplier   1
      angular_grids       specified
        division   0.4283  110
        division   0.4792  194
        division   0.5061  302
  #      division   0.7227  434
  #      division   0.8724  590
  #      division   0.9555  770
  #      division   2.9770  974
  #      outer_grid   974
        outer_grid 302
  ################################################################################
  #
  #  Definition of "minimal" basis
  #
  ################################################################################
  #     valence basis states
      valence      2  s   2.
  #     ion occupancy
      ion_occ      2  s   1.
  ################################################################################
  #
  #  Suggested additional basis functions. For production calculations,
  #  uncomment them one after another (the most important basis functions are
  #  listed first).
  #
  #  Constructed for dimers: 1.75 A, 2.0 A, 2.375 A, 3.00 A, 4.00 A
  #
  ################################################################################
  #  "First tier" - improvements: -677.26 meV to -34.75 meV
  #     ionic 2 p auto
  #     hydro 3 s 2.9
  #     hydro 3 d 3.5
  #  "Second tier" - improvements: -16.34 meV to -1.26 meV
  #     hydro 3 p 3.1
  #     hydro 4 d 4.7
  #     hydro 3 p 2.4
  #     hydro 4 f 7.6
  #     hydro 2 s 2.9
  #  "Third tier" - improvements: -0.27 meV to -0.05 meV
  #     hydro 2 p 8.2
  #     hydro 5 g 10.8
  #     hydro 4 f 7
  #     hydro 3 s 2.3
  #     hydro 4 d 3.8
  
  -----------------------------------------------------------------------
  Completed first pass over input file control.in .
  -----------------------------------------------------------------------
  
  
  -----------------------------------------------------------------------
  Parsing geometry.in (first pass over file, find array dimensions only).
  The contents of geometry.in will be repeated verbatim below
  unless switched off by setting 'verbatim_writeout .false.' .
  in the first line of geometry.in .
  -----------------------------------------------------------------------
  
  #=======================================================
  #FHI-aims file: /eos/scratch/biebj/binaries/binaries_unrelaxed/pbe/light/minimal/atomic_zora/4/04_Be/geometry.in
  #Created using the Atomic Simulation Environment (ASE)
  #=======================================================
  lattice_vector 4.8830000000000000 0.0000000000000000 0.0000000000000000
  lattice_vector 0.0000000000000003 4.8830000000000000 0.0000000000000000
  lattice_vector 0.0000000000000003 0.0000000000000003 4.8830000000000000
  atom 1.2207500000000000 1.2207500000000000 1.2207500000000000 S
  atom 3.6622500000000007 3.6622500000000002 1.2207500000000000 S
  atom 3.6622500000000007 1.2207500000000002 3.6622500000000002 S
  atom 1.2207500000000004 3.6622500000000007 3.6622500000000002 S
  atom 0.0000000000000000 0.0000000000000000 0.0000000000000000 Be
  atom 0.0000000000000003 2.4415000000000000 2.4415000000000000 Be
  atom 2.4415000000000000 0.0000000000000001 2.4415000000000000 Be
  atom 2.4415000000000000 2.4415000000000000 0.0000000000000000 Be
  
  -----------------------------------------------------------------------
  Completed first pass over input file geometry.in .
  -----------------------------------------------------------------------
  

  Basic array size parameters:
  | Number of species                 :        2
  | Number of atoms                   :        8
  | Number of lattice vectors         :        3
  | Max. basis fn. angular momentum   :        1
  | Max. atomic/ionic basis occupied n:        3
  | Max. number of basis fn. types    :        1
  | Max. radial fns per species/type  :        5
  | Max. logarithmic grid size        :     1357
  | Max. radial integration grid size :       44
  | Max. angular integration grid size:      302
  | Max. angular grid division number :        8
  | Radial grid for Hartree potential :     1357
  | Number of spin channels           :        1

------------------------------------------------------------
          Reading file control.in.
------------------------------------------------------------
  Charge density mixing - mixing parameter:     0.0100
  Maximum number of s.-c. iterations  :  8000
  Scalar relativistic treatment of kinetic energy: on-site free-atom approximation to ZORA.
  Convergence accuracy of self-consistent charge density: 0.1000E-04
  Charge =   0.000000E+00: Neutral system requested explicitly.
  Found k-point grid multipliers for perturbative DOS :         3         3         3
  XC: Using PBE gradient-corrected functionals.
  override_relativity: Explicitly overriding any built-in relativity checks.
  If you use this flag, you should really know what you are doing.
  Found k-point grid:         6         6         6
  Using Kerker preconditioning with damping at q_0 =     0.1500E+01
  Pulay mixing - number of memorized iterations:   10
  Occupation type: Fermi broadening, width =   0.100000E+00 eV.
  Spin treatment: No spin polarisation.
  Forces will be computed.
  override_illconditioning: Explicitly overriding any built-in checks for an ill-conditioned overlap matrix.
  *** WARNING: If you use this flag, you should really know what you are doing.
  *** DO NOT keep this flag set by default in all your control.in files.
  Using pulay charge density mixing.
  Convergence accuracy of total energy: 0.1000E-04
  Convergence accuracy of sum of eigenvalues: 0.1000E-04
  Convergence accuracy of forces: 0.1000E-03
  Calculating atom-projected density of states with
  | energy interval :-20.000000 10.000000
  | points & broadening :  1000  0.010000
  Calculating density of states with
  | energy interval :-20.000000 10.000000
  | points & broadening :  1000  0.010000
  quadrupole moment will be written out.
  Hirshfeld charge analysis will be performed.

  Plot band    1
  | begin  0.000000  0.000000  0.000000
  | end    0.500000  0.000000  0.500000
  | number of points:   20

  Plot band    2
  | begin  0.500000  0.000000  0.500000
  | end    0.500000  0.250000  0.750000
  | number of points:   20

  Plot band    3
  | begin  0.500000  0.250000  0.750000
  | end    0.375000  0.375000  0.750000
  | number of points:   20

  Plot band    4
  | begin  0.375000  0.375000  0.750000
  | end    0.000000  0.000000  0.000000
  | number of points:   20

  Plot band    5
  | begin  0.000000  0.000000  0.000000
  | end    0.500000  0.500000  0.500000
  | number of points:   20

  Plot band    6
  | begin  0.500000  0.500000  0.500000
  | end    0.625000  0.250000  0.625000
  | number of points:   20

  Plot band    7
  | begin  0.625000  0.250000  0.625000
  | end    0.500000  0.250000  0.750000
  | number of points:   20

  Plot band    8
  | begin  0.500000  0.250000  0.750000
  | end    0.500000  0.500000  0.500000
  | number of points:   20

  Plot band    9
  | begin  0.500000  0.500000  0.500000
  | end    0.375000  0.375000  0.750000
  | number of points:   20

  Plot band   10
  | begin  0.625000  0.250000  0.625000
  | end    0.500000  0.000000  0.500000
  | number of points:   20
 
  Reading configuration options for species S                   .
  | Found nuclear charge :  16.0000
  | Found atomic mass :    32.0650000000000      amu
  | Found l_max for Hartree potential  :   4
  | Found cutoff potl. onset [A], width [A], scale factor :    3.50000    1.50000    1.00000
  | Threshold for basis-dependent cutoff potential is   0.100000E-03
  | Found data for basic radial integration grid :    44 points, outermost radius =    5.000 A
  | Found multiplier for basic radial grid :   1
  | Found angular grid specification: user-specified.
  | Specified grid contains     4 separate shells.
  | Check grid settings after all constraints further below.
  | Found free-atom valence shell :  3 s   2.000
  | Found free-atom valence shell :  3 p   4.000
  | No ionic wave fns used. Skipping ion_occ.
  | No ionic wave fns used. Skipping ion_occ.
  Species S                   : Missing cutoff potential type.
  Defaulting to exp(1/x)/(1-x)^2 type cutoff potential.
  Species S : No 'logarithmic' tag. Using default grid for free atom:
  | Default logarithmic grid data [bohr] : 0.1000E-03 0.1000E+03 0.1012E+01
  Species S : On-site basis accuracy parameter (for Gram-Schmidt orthonormalisation) not specified.
  Using default value basis_acc =  0.1000000E-03.
  Species S                   : Using default innermost maximum threshold i_radial=  2 for radial functions.
  Species S                   : Default cutoff onset for free atom density etc. : 0.35000000E+01 AA.
  Species S                   : Basic radial grid will be enhanced according to radial_multiplier =   1, to contain    44 grid points.
 
  Reading configuration options for species Be                  .
  | Found nuclear charge :   4.0000
  | Found atomic mass :    9.01218200000000      amu
  | Found l_max for Hartree potential  :   4
  | Found cutoff potl. onset [A], width [A], scale factor :    3.50000    1.50000    1.00000
  | Threshold for basis-dependent cutoff potential is   0.100000E-03
  | Found data for basic radial integration grid :    31 points, outermost radius =    5.000 A
  | Found multiplier for basic radial grid :   1
  | Found angular grid specification: user-specified.
  | Specified grid contains     4 separate shells.
  | Check grid settings after all constraints further below.
  | Found free-atom valence shell :  2 s   2.000
  | No ionic wave fns used. Skipping ion_occ.
  Species Be                  : Missing cutoff potential type.
  Defaulting to exp(1/x)/(1-x)^2 type cutoff potential.
  Species Be: No 'logarithmic' tag. Using default grid for free atom:
  | Default logarithmic grid data [bohr] : 0.1000E-03 0.1000E+03 0.1012E+01
  Species Be: On-site basis accuracy parameter (for Gram-Schmidt orthonormalisation) not specified.
  Using default value basis_acc =  0.1000000E-03.
  Species Be                  : Using default innermost maximum threshold i_radial=  2 for radial functions.
  Species Be                  : Default cutoff onset for free atom density etc. : 0.35000000E+01 AA.
  Species Be                  : Basic radial grid will be enhanced according to radial_multiplier =   1, to contain    31 grid points.
 
  Finished reading input file 'control.in'. Consistency checks are next.
 
  Target number of points in a grid batch is not set. Defaulting to  100
  Method for grid partitioning is not set. Defaulting to parallel hash+maxmin partitioning.
  Batch size limit is not set. Defaulting to    200
  By default, will store active basis functions for each batch.
  If in need of memory, prune_basis_once .false. can be used to disable this option.
  communication_type for Hartree potential was not specified.
  Defaulting to calc_hartree .
  Pulay mixer: Number of initial linear mixing iterations not set.
  Defaulting to    0 iterations.
  Work space size for distributed Hartree potential not set.
  Defaulting to   0.200000E+03 MB.
  Algorithm-dependent basis array size parameters:
  | n_max_pulay                         :       10
  Geometry relaxation not requested: no relaxation will be performed.
  Analytical stress will be computed.
  Analytical stress calculation: Only the upper triangle is calculated.
                                 Final output is symmetrized.
  Analytical stress calculation: scf convergence accuracy of stress not set.
                                 Analytical stress self-consistency will not be checked explicitly.
                                 Be sure to set other criteria like sc_accuracy_eev tight enough.
  Handling of forces: Unphysical translation and rotation will be removed from forces.
  No accuracy limit for integral partition fn. given. Defaulting to 0.1000E-14.
  No threshold value for u(r) in integrations given. Defaulting to 0.1000E-05.
  No accuracy for occupation numbers given. Defaulting to 0.1000E-07.
  No threshold value for occupation numbers given. Defaulting to 0.0000E+00.
  No accuracy for fermi level given. Defaulting to 0.1000E-19.
  Maximum # of iterations to find E_F not set. Defaulting to  200.
  Preferred method for the eigenvalue solver ('KS_method') not specified in 'control.in'.
  Defaulting to serial version, 'lapack_fast', since more k-points than CPUs available.
  Will not use alltoall communication since running on < 1024 CPUs.
  Threshold for basis singularities not set.
  Default threshold for basis singularities: 0.1000E-04
  partition_type (choice of integration weights) for integrals was not specified.
  | Using a version of the partition function of Stratmann and coworkers ('stratmann_smoother').
  | At each grid point, the set of atoms used to build the partition table is smoothly restricted to
  | only those atoms whose free-atom density would be non-zero at that grid point.
  Partitioning for Hartree potential was not defined. Using partition_type for integrals.
  | Adjusted default value of keyword multip_moments_threshold to:       0.10000000E-11
  | This value may affect high angular momentum components of the Hartree potential in periodic systems.
  Angular momentum expansion for Kerker preconditioner not set explicitly.
  | Using default value of   0
  No explicit requirement for turning off preconditioner.
  | By default, it will be turned off when the charge convergence reaches
  | sc_accuracy_rho  =   0.100000E-04
  | sc_accuracy_eev  =   0.100000E-04
  | sc_accuracy_etot =   0.100000E-04
  No special mixing parameter while Kerker preconditioner is on.
  Using default: charge_mix_param =     0.0100.
  No q(lm)/r^(l+1) cutoff set for long-range Hartree potential.
  | Using default value of  0.100000E-09 .
  | Verify using the multipole_threshold keyword.
  Defaulting to new monopole extrapolation.
  Density update method: automatic selection selected.
  Using density matrix based charge density update.
  Using density matrix based charge density update.
  Using packed matrix style: index .
  Defaulting to use time-reversal symmetry for k-point grid.
------------------------------------------------------------


------------------------------------------------------------
          Reading geometry description geometry.in.
------------------------------------------------------------
  Input structure read successfully.
  The structure contains        8 atoms,  and a total of         80.000 electrons.

  Input geometry:
  | Unit cell:
  |         4.883000         0.000000         0.000000
  |         0.000000         4.883000         0.000000
  |         0.000000         0.000000         4.883000
  | Atomic structure:
  |       Atom                x [A]            y [A]            z [A]
  |    1: Species S              1.220750         1.220750         1.220750
  |    2: Species S              3.662250         3.662250         1.220750
  |    3: Species S              3.662250         1.220750         3.662250
  |    4: Species S              1.220750         3.662250         3.662250
  |    5: Species Be             0.000000         0.000000         0.000000
  |    6: Species Be             0.000000         2.441500         2.441500
  |    7: Species Be             2.441500         0.000000         2.441500
  |    8: Species Be             2.441500         2.441500         0.000000
  |

  | The smallest distance between any two atoms is         2.11440102 AA.
  |
  | The first atom of this pair is atom number                      8 .
  | The second atom of this pair is atom number                     3 .
  | Wigner-Seitz cell of the first atom image           0     1     0 .
  | (The Wigner-Seitz cell of the second atom is 0 0 0  by definition.)

  Quantities derived from the lattice vectors:
  | Reciprocal lattice vector 1:  1.286747  0.000000  0.000000
  | Reciprocal lattice vector 2:  0.000000  1.286747  0.000000
  | Reciprocal lattice vector 3:  0.000000 -0.000000  1.286747
  | Unit cell volume                               :   0.116429E+03  A^3

  Number of empty states per atom not set in control.in - providing a guess from actual geometry.
  | Total number of empty states used during s.c.f. cycle:       18
  If you use a very high smearing, use empty_states (per atom!) in control.in to increase this value.

  Structure-dependent array size parameters: 
  | Maximum number of distinct radial functions  :        7
  | Maximum number of basis functions            :       44
  | Number of Kohn-Sham states (occupied + empty):       58
------------------------------------------------------------

------------------------------------------------------------
          Preparing all fixed parts of the calculation.
------------------------------------------------------------
  Determining machine precision:
    2.225073858507201E-308
  Setting up grids for atomic and cluster calculations.

  Creating wave function, potential, and density for free atoms.

  Species: S

  List of occupied orbitals and eigenvalues:
    n    l              occ      energy [Ha]    energy [eV]
    1    0           2.0000       -88.678258     -2413.0582
    2    0           2.0000        -7.779365      -211.6873
    3    0           2.0000        -0.631865       -17.1939
    2    1           6.0000        -5.749610      -156.4549
    3    1           4.0000        -0.255301        -6.9471


  Species: Be

  List of occupied orbitals and eigenvalues:
    n    l              occ      energy [Ha]    energy [eV]
    1    0           2.0000        -3.895374      -105.9985
    2    0           2.0000        -0.200752        -5.4627

  Creating fixed part of basis set: Ionic, confined, hydrogenic.

  Adding cutoff potential to free-atom effective potential.
  Creating atomic-like basis functions for current effective potential.

  Species S                   :

  List of atomic basis orbitals and eigenvalues:
    n    l      energy [Ha]    energy [eV]    outer radius [A]
    1    0       -88.678258     -2413.0582       0.682391
    2    0        -7.779365      -211.6873       2.289014
    3    0        -0.631865       -17.1939       4.483910
    2    1        -5.749610      -156.4549       2.555240
    3    1        -0.255301        -6.9471       4.539062


  Species Be                  :

  List of atomic basis orbitals and eigenvalues:
    n    l      energy [Ha]    energy [eV]    outer radius [A]
    1    0        -3.895374      -105.9985       3.047029
    2    0        -0.200752        -5.4627       4.561227

  Assembling full basis from fixed parts.
  | Species S :   atomic orbital   1 s accepted.
  | Species S :   atomic orbital   2 s accepted.
  | Species S :   atomic orbital   3 s accepted.
  | Species S :   atomic orbital   2 p accepted.
  | Species S :   atomic orbital   3 p accepted.
  | Species Be :   atomic orbital   1 s accepted.
  | Species Be :   atomic orbital   2 s accepted.
  Reducing total number of  Kohn-Sham states to       44.
 
  Basis size parameters after reduction:
  | Total number of radial functions:        7
  | Total number of basis functions :       44
 
  Testing on-site integration grid accuracy.
  |  Species  Function  <phi|h_atom|phi> (log., in eV)  <phi|h_atom|phi> (rad., in eV)
           1        1              -2413.0581659109              -2413.0570554886
           1        2               -211.6872814127               -211.6872738937
           1        3                -17.1939714523                -17.1940334977
           1        4               -156.4548540501               -156.4548540107
           1        5                 -6.9485729304                 -6.9508389945
           2        6               -105.9985214231               -105.9985083531
           2        7                 -5.4691325526                 -5.4709639292

  Preparing densities etc. for the partition functions (integrals / Hartree potential).

  Preparations completed.
  max(cpu_time)          :      0.196 s.
  Wall clock time (cpu1) :      0.551 s.
------------------------------------------------------------

------------------------------------------------------------
          Begin self-consistency loop: Initialization.

          Date     :  20160712, Time     :  195935.800
------------------------------------------------------------

  Initializing index lists of integration centers etc. from given atomic structure:
  Mapping all atomic coordinates to central unit cell.

  Initializing the k-points
          Using symmetry for reducing the k-points
  | k-points reduced from:      216 to      112
  | Number of k-points                             :       112
  The eigenvectors in the calculations are COMPLEX.
  | K-points in task   0:         1
  | K-points in task   1:         2
  | K-points in task   2:         2
  | K-points in task   3:         2
  | K-points in task   4:         2
  | K-points in task   5:         2
  | K-points in task   6:         2
  | K-points in task   7:         2
  | K-points in task   8:         2
  | K-points in task   9:         2
  | K-points in task  10:         2
  | K-points in task  11:         2
  | K-points in task  12:         2
  | K-points in task  13:         2
  | K-points in task  14:         2
  | K-points in task  15:         2
  | K-points in task  16:         2
  | K-points in task  17:         2
  | K-points in task  18:         2
  | K-points in task  19:         2
  | K-points in task  20:         2
  | K-points in task  21:         2
  | K-points in task  22:         2
  | K-points in task  23:         2
  | K-points in task  24:         2
  | K-points in task  25:         2
  | K-points in task  26:         2
  | K-points in task  27:         2
  | K-points in task  28:         2
  | K-points in task  29:         2
  | K-points in task  30:         2
  | K-points in task  31:         2
  | K-points in task  32:         2
  | K-points in task  33:         2
  | K-points in task  34:         2
  | K-points in task  35:         2
  | K-points in task  36:         2
  | K-points in task  37:         2
  | K-points in task  38:         2
  | K-points in task  39:         2
  | K-points in task  40:         2
  | K-points in task  41:         2
  | K-points in task  42:         2
  | K-points in task  43:         2
  | K-points in task  44:         2
  | K-points in task  45:         2
  | K-points in task  46:         2
  | K-points in task  47:         2
  | K-points in task  48:         2
  | K-points in task  49:         1
  | K-points in task  50:         1
  | K-points in task  51:         1
  | K-points in task  52:         1
  | K-points in task  53:         1
  | K-points in task  54:         1
  | K-points in task  55:         1
  | K-points in task  56:         1
  | K-points in task  57:         1
  | K-points in task  58:         1
  | K-points in task  59:         1
  | K-points in task  60:         1
  | K-points in task  61:         1
  | K-points in task  62:         1
  | K-points in task  63:         1
  | Number of basis functions in the Hamiltonian integrals :       558
  | Number of basis functions in a single unit cell        :        44
  | Number of centers in hartree potential         :       948
  | Number of centers in hartree multipole         :       618
  | Number of centers in electron density summation:       486
  | Number of centers in basis integrals           :       486
  | Number of centers in integrals                 :       167
  | Consuming        164 KiB for k_phase.
  | Number of super-cells :                  94
  | Size of matrix packed + index :       15113
  Perform CPU consistency test for lattice for partition grid
  Perform CPU consistency test for map_to_center_cell_matrix for partition grid
  Partitioning the integration grid into batches with parallel hashing+maxmin method.
  | Number of batches:      836
  | Maximal batch size:     136
  | Minimal batch size:      49
  | Average batch size:      73.751
  | Standard deviation of batch sizes:      18.759

  Integration load balanced across    64 MPI tasks.
  Work distribution over tasks is as follows:
  Task     0 has        943 integration points.
  Task     1 has        980 integration points.
  Task     2 has        994 integration points.
  Task     3 has        946 integration points.
  Task     4 has        941 integration points.
  Task     5 has        975 integration points.
  Task     6 has        994 integration points.
  Task     7 has        943 integration points.
  Task     8 has        942 integration points.
  Task     9 has        949 integration points.
  Task    10 has        976 integration points.
  Task    11 has        937 integration points.
  Task    12 has       1003 integration points.
  Task    13 has        944 integration points.
  Task    14 has        978 integration points.
  Task    15 has        940 integration points.
  Task    16 has        942 integration points.
  Task    17 has        938 integration points.
  Task    18 has        948 integration points.
  Task    19 has        979 integration points.
  Task    20 has        977 integration points.
  Task    21 has        974 integration points.
  Task    22 has        923 integration points.
  Task    23 has        972 integration points.
  Task    24 has        943 integration points.
  Task    25 has        947 integration points.
  Task    26 has        979 integration points.
  Task    27 has       1002 integration points.
  Task    28 has        994 integration points.
  Task    29 has        926 integration points.
  Task    30 has        961 integration points.
  Task    31 has        969 integration points.
  Task    32 has        939 integration points.
  Task    33 has        977 integration points.
  Task    34 has        945 integration points.
  Task    35 has        974 integration points.
  Task    36 has       1000 integration points.
  Task    37 has        934 integration points.
  Task    38 has        981 integration points.
  Task    39 has       1030 integration points.
  Task    40 has        945 integration points.
  Task    41 has        925 integration points.
  Task    42 has        945 integration points.
  Task    43 has        975 integration points.
  Task    44 has        944 integration points.
  Task    45 has        946 integration points.
  Task    46 has        998 integration points.
  Task    47 has        970 integration points.
  Task    48 has       1004 integration points.
  Task    49 has       1024 integration points.
  Task    50 has        979 integration points.
  Task    51 has        940 integration points.
  Task    52 has        945 integration points.
  Task    53 has        923 integration points.
  Task    54 has        944 integration points.
  Task    55 has        940 integration points.
  Task    56 has       1001 integration points.
  Task    57 has        974 integration points.
  Task    58 has        941 integration points.
  Task    59 has       1000 integration points.
  Task    60 has        942 integration points.
  Task    61 has        997 integration points.
  Task    62 has        943 integration points.
  Task    63 has        972 integration points.
  Initializing partition tables, free-atom densities, potentials, etc. across the integration grid (initialize_grid_storage).
  | initialize_grid_storage: Actual outermost partition radius vs. multipole_radius_free
  | (-- VB: in principle, multipole_radius_free should be larger, hence this output)
  | Species        1: outer_partition_radius =              4.999999999999999 AA, multipole_radius_free =              5.005414751018925 AA.
  | Species        2: outer_partition_radius =              4.999999999999999 AA, multipole_radius_free =              5.029856487094629 AA.
  | Original list of interatomic distances with         486 x        486 entries is created.
  | Net number of integration points:    61656
  | of which are non-zero points    :    54616
  | Numerical average free-atom electrostatic potential    :    -13.07788391 eV
  Obtaining max. number of non-zero basis functions in each batch (get_n_compute_maxes).
  | Maximal number of non-zero basis functions:      150 in task     0
  | Maximal number of non-zero basis functions:      132 in task     1
  | Maximal number of non-zero basis functions:      132 in task     2
  | Maximal number of non-zero basis functions:      145 in task     3
  | Maximal number of non-zero basis functions:      138 in task     4
  | Maximal number of non-zero basis functions:      125 in task     5
  | Maximal number of non-zero basis functions:      140 in task     6
  | Maximal number of non-zero basis functions:      138 in task     7
  | Maximal number of non-zero basis functions:      140 in task     8
  | Maximal number of non-zero basis functions:      145 in task     9
  | Maximal number of non-zero basis functions:      137 in task    10
  | Maximal number of non-zero basis functions:      132 in task    11
  | Maximal number of non-zero basis functions:      140 in task    12
  | Maximal number of non-zero basis functions:      143 in task    13
  | Maximal number of non-zero basis functions:      137 in task    14
  | Maximal number of non-zero basis functions:      150 in task    15
  | Maximal number of non-zero basis functions:      150 in task    16
  | Maximal number of non-zero basis functions:      143 in task    17
  | Maximal number of non-zero basis functions:      145 in task    18
  | Maximal number of non-zero basis functions:      140 in task    19
  | Maximal number of non-zero basis functions:      132 in task    20
  | Maximal number of non-zero basis functions:      145 in task    21
  | Maximal number of non-zero basis functions:      132 in task    22
  | Maximal number of non-zero basis functions:      141 in task    23
  | Maximal number of non-zero basis functions:      137 in task    24
  | Maximal number of non-zero basis functions:      141 in task    25
  | Maximal number of non-zero basis functions:      132 in task    26
  | Maximal number of non-zero basis functions:      135 in task    27
  | Maximal number of non-zero basis functions:      126 in task    28
  | Maximal number of non-zero basis functions:      145 in task    29
  | Maximal number of non-zero basis functions:      145 in task    30
  | Maximal number of non-zero basis functions:      140 in task    31
  | Maximal number of non-zero basis functions:      126 in task    32
  | Maximal number of non-zero basis functions:      129 in task    33
  | Maximal number of non-zero basis functions:      143 in task    34
  | Maximal number of non-zero basis functions:      140 in task    35
  | Maximal number of non-zero basis functions:      143 in task    36
  | Maximal number of non-zero basis functions:      143 in task    37
  | Maximal number of non-zero basis functions:      137 in task    38
  | Maximal number of non-zero basis functions:      143 in task    39
  | Maximal number of non-zero basis functions:      143 in task    40
  | Maximal number of non-zero basis functions:      127 in task    41
  | Maximal number of non-zero basis functions:      131 in task    42
  | Maximal number of non-zero basis functions:      138 in task    43
  | Maximal number of non-zero basis functions:      139 in task    44
  | Maximal number of non-zero basis functions:      145 in task    45
  | Maximal number of non-zero basis functions:      141 in task    46
  | Maximal number of non-zero basis functions:      138 in task    47
  | Maximal number of non-zero basis functions:      132 in task    48
  | Maximal number of non-zero basis functions:      150 in task    49
  | Maximal number of non-zero basis functions:      137 in task    50
  | Maximal number of non-zero basis functions:      131 in task    51
  | Maximal number of non-zero basis functions:      126 in task    52
  | Maximal number of non-zero basis functions:      128 in task    53
  | Maximal number of non-zero basis functions:      131 in task    54
  | Maximal number of non-zero basis functions:      140 in task    55
  | Maximal number of non-zero basis functions:      137 in task    56
  | Maximal number of non-zero basis functions:      132 in task    57
  | Maximal number of non-zero basis functions:      140 in task    58
  | Maximal number of non-zero basis functions:      143 in task    59
  | Maximal number of non-zero basis functions:      143 in task    60
  | Maximal number of non-zero basis functions:      131 in task    61
  | Maximal number of non-zero basis functions:      142 in task    62
  | Maximal number of non-zero basis functions:      140 in task    63
  Integrating Hamiltonian matrix: batch-based integration.
  Time summed over all CPUs for integration: real work        4.123 s, elapsed        4.662 s
  Integrating overlap matrix.
  Time summed over all CPUs for integration: real work        0.490 s, elapsed        0.558 s
  Decreasing sparse matrix size:
   Tolerance:  9.999999824516700E-014
   Hamiltonian matrix
  | Array has    11896 nonzero elements out of    15113 elements
  | Sparsity factor is 0.213
   Overlap matrix
  | Array has    10624 nonzero elements out of    15113 elements
  | Sparsity factor is 0.297
  New size of hamiltonian matrix:       12017

  Updating Kohn-Sham eigenvalues, eigenvectors, occupation numbers, and Fermi level.
  Solving generalized eigenproblem
  Transforming overlap matrix and checking for singularities.
  Overlap matrix is nonsingular at first k-point:
  | Lowest eigenvalue:  0.166550E+00
  Determining occupation numbers for Kohn-Sham eigenstates.
  | Chemical potential (Fermi level) in eV                 : -.49094531E+01
  | Error in electron count due to remaining E_F inaccuracy: -.12789769E-11
  | Maximum occupation number of highest empty state:  8.01E-25

  Writing Kohn-Sham eigenvalues.
  K-point:       1 at    0.000000    0.000000    0.000000 (in units of recip. lattice)

  State    Occupation    Eigenvalue [Ha]    Eigenvalue [eV]
      1       2.00000         -88.708561        -2413.88276
      2       2.00000         -88.708561        -2413.88276
      3       2.00000         -88.708561        -2413.88276
      4       2.00000         -88.708561        -2413.88276
      5       2.00000          -7.813227         -212.60873
      6       2.00000          -7.813227         -212.60873
      7       2.00000          -7.813227         -212.60873
      8       2.00000          -7.813227         -212.60873
      9       2.00000          -5.783109         -157.36639
     10       2.00000          -5.783109         -157.36639
     11       2.00000          -5.783109         -157.36639
     12       2.00000          -5.783108         -157.36639
     13       2.00000          -5.783108         -157.36639
     14       2.00000          -5.783108         -157.36639
     15       2.00000          -5.783108         -157.36639
     16       2.00000          -5.783108         -157.36639
     17       2.00000          -5.783108         -157.36639
     18       2.00000          -5.783108         -157.36639
     19       2.00000          -5.783108         -157.36639
     20       2.00000          -5.783108         -157.36639
     21       2.00000          -3.921211         -106.70157
     22       2.00000          -3.921211         -106.70157
     23       2.00000          -3.921211         -106.70157
     24       2.00000          -3.921208         -106.70149
     25       2.00000          -0.783348          -21.31597
     26       2.00000          -0.703440          -19.14157
     27       2.00000          -0.703440          -19.14157
     28       2.00000          -0.703440          -19.14157
     29       2.00000          -0.460535          -12.53178
     30       2.00000          -0.460535          -12.53178
     31       2.00000          -0.460535          -12.53178
     32       2.00000          -0.348469           -9.48234
     33       2.00000          -0.348469           -9.48234
     34       2.00000          -0.348469           -9.48234
     35       2.00000          -0.348469           -9.48234
     36       2.00000          -0.348469           -9.48234
     37       2.00000          -0.348469           -9.48234
     38       2.00000          -0.275428           -7.49477
     39       2.00000          -0.275428           -7.49477
     40       2.00000          -0.275428           -7.49477
     41       0.00000          -0.069086           -1.87991
     42       0.00000           0.091301            2.48442
     43       0.00000           0.091301            2.48442
     44       0.00000           0.091301            2.48442

  What follows are estimated values for band gap, HOMO, LUMO, etc.
  | They are estimated on a discrete k-point grid and not necessarily exact.
  | For converged numbers, create a DOS and/or band structure plot on a denser k-grid.

  Highest occupied state (VBM) at     -7.49477272 eV (relative to internal zero)
  | Occupation number:      2.00000000
  | K-point:       1 at    0.000000    0.000000    0.000000 (in units of recip. lattice)

  Lowest unoccupied state (CBM) at    -1.87991323 eV (relative to internal zero)
  | Occupation number:      0.00000000
  | K-point:       1 at    0.000000    0.000000    0.000000 (in units of recip. lattice)

  ESTIMATED overall HOMO-LUMO gap:      5.61485949 eV between HOMO at k-point 1 and LUMO at k-point 1
  | This appears to be a direct band gap.
  The gap value is above 0.2 eV. Unless you are using a very sparse k-point grid,
  this system is most likely an insulator or a semiconductor.
  Calculating total energy contributions from superposition of free atom densities.

  Total energy components:
  | Sum of eigenvalues            :        -956.91073471 Ha      -26038.86593425 eV
  | XC energy correction          :        -114.18522834 Ha       -3107.13815259 eV
  | XC potential correction       :         147.48198580 Ha        4013.18902239 eV
  | Free-atom electrostatic energy:        -734.38192169 Ha      -19983.54884086 eV
  | Hartree energy correction     :           0.00000000 Ha           0.00000000 eV
  | Entropy correction            :           0.00000000 Ha           0.00000000 eV
  | ---------------------------
  | Total energy                  :       -1657.99589893 Ha      -45116.36390530 eV
  | Total energy, T -> 0          :       -1657.99589893 Ha      -45116.36390530 eV  <-- do not rely on this value for anything but (periodic) metals
  | Electronic free energy        :       -1657.99589893 Ha      -45116.36390530 eV

  Derived energy quantities:
  | Kinetic energy                :        1665.17349306 Ha       45311.67617881 eV
  | Electrostatic energy          :       -3208.98416365 Ha      -87320.90193153 eV
  | Energy correction for multipole
  | error in Hartree potential    :           0.00000000 Ha           0.00000000 eV
  | Sum of eigenvalues per atom                           :       -3254.85824178 eV
  | Total energy (T->0) per atom                          :       -5639.54548816 eV  <-- do not rely on this value for anything but (periodic) metals
  | Electronic free energy per atom                       :       -5639.54548816 eV
  Initialize hartree_potential_storage
  Max. number of atoms included in rho_multipole:            8

  End scf initialization - timings             :  max(cpu_time)    wall_clock(cpu1)
  | Time for scf. initialization               :        0.364 s           0.624 s
  | Boundary condition initialization          :        0.100 s           0.135 s
  | Integration                                :        0.076 s           0.104 s
  | Solution of K.-S. eqns.                    :        0.056 s           0.115 s
  | Grid partitioning                          :        0.036 s           0.036 s
  | Preloading free-atom quantities on grid    :        0.020 s           0.055 s
  | Free-atom superposition energy             :        0.024 s           0.025 s
  | Total energy evaluation                    :        0.004 s           0.015 s
------------------------------------------------------------

------------------------------------------------------------
          Begin self-consistency iteration #    1

  Date     :  20160712, Time     :  195936.437
------------------------------------------------------------
  Evaluating new KS density using the density matrix
  Evaluating density matrix
  Time summed over all CPUs for getting density from density matrix: real work        1.523 s, elapsed        2.043 s
  Integration grid: deviation in total charge (<rho> - N_e) =  -1.151079E-12
  Pulay mixing of updated and previous charge densities.

  Evaluating partitioned Hartree potential by multipole expansion.
  | Analytical far-field extrapolation by fixed multipoles:
  | Hartree multipole sum: apparent total charge =   0.220595E-03
  Summing up the Hartree potential.
  | Estimated reciprocal-space cutoff momentum G_max:         3.15033928 bohr^-1 .
  | Reciprocal lattice points for long-range Hartree potential:     436
  Time summed over all CPUs for potential: real work        5.986 s, elapsed        6.575 s
  | RMS charge density error from multipole expansion :   0.161487E-03
  | Average real-space part of the electrostatic potential :      0.00475979 eV

  Integrating Hamiltonian matrix: batch-based integration.
  Time summed over all CPUs for integration: real work        0.836 s, elapsed        0.927 s

  Updating Kohn-Sham eigenvalues, eigenvectors, occupation numbers, and Fermi level.
  Solving generalized eigenproblem
  Determining occupation numbers for Kohn-Sham eigenstates.
  | Chemical potential (Fermi level) in eV                 : -.49778276E+01
  | Error in electron count due to remaining E_F inaccuracy: -.29558578E-11
  | Maximum occupation number of highest empty state:  3.78E-25

  Writing Kohn-Sham eigenvalues.
  K-point:       1 at    0.000000    0.000000    0.000000 (in units of recip. lattice)

  State    Occupation    Eigenvalue [Ha]    Eigenvalue [eV]
      1       2.00000         -88.705416        -2413.79718
      2       2.00000         -88.705416        -2413.79718
      3       2.00000         -88.705416        -2413.79718
      4       2.00000         -88.705416        -2413.79718
      5       2.00000          -7.810944         -212.54659
      6       2.00000          -7.810943         -212.54658
      7       2.00000          -7.810943         -212.54658
      8       2.00000          -7.810943         -212.54658
      9       2.00000          -5.780749         -157.30219
     10       2.00000          -5.780749         -157.30219
     11       2.00000          -5.780749         -157.30219
     12       2.00000          -5.780749         -157.30219
     13       2.00000          -5.780749         -157.30219
     14       2.00000          -5.780749         -157.30219
     15       2.00000          -5.780749         -157.30218
     16       2.00000          -5.780749         -157.30218
     17       2.00000          -5.780749         -157.30218
     18       2.00000          -5.780749         -157.30218
     19       2.00000          -5.780749         -157.30218
     20       2.00000          -5.780749         -157.30218
     21       2.00000          -3.922382         -106.73344
     22       2.00000          -3.922382         -106.73344
     23       2.00000          -3.922382         -106.73344
     24       2.00000          -3.922379         -106.73336
     25       2.00000          -0.782716          -21.29878
     26       2.00000          -0.702554          -19.11746
     27       2.00000          -0.702554          -19.11746
     28       2.00000          -0.702554          -19.11746
     29       2.00000          -0.460184          -12.52226
     30       2.00000          -0.460184          -12.52226
     31       2.00000          -0.460184          -12.52226
     32       2.00000          -0.347787           -9.46376
     33       2.00000          -0.347787           -9.46376
     34       2.00000          -0.347787           -9.46376
     35       2.00000          -0.347787           -9.46376
     36       2.00000          -0.347787           -9.46376
     37       2.00000          -0.347787           -9.46376
     38       2.00000          -0.274626           -7.47296
     39       2.00000          -0.274626           -7.47296
     40       2.00000          -0.274626           -7.47296
     41       0.00000          -0.068746           -1.87067
     42       0.00000           0.091536            2.49081
     43       0.00000           0.091536            2.49081
     44       0.00000           0.091536            2.49081

  What follows are estimated values for band gap, HOMO, LUMO, etc.
  | They are estimated on a discrete k-point grid and not necessarily exact.
  | For converged numbers, create a DOS and/or band structure plot on a denser k-grid.

  Highest occupied state (VBM) at     -7.47295722 eV (relative to internal zero)
  | Occupation number:      2.00000000
  | K-point:       1 at    0.000000    0.000000    0.000000 (in units of recip. lattice)

  Lowest unoccupied state (CBM) at    -1.87067156 eV (relative to internal zero)
  | Occupation number:      0.00000000
  | K-point:       1 at    0.000000    0.000000    0.000000 (in units of recip. lattice)

  ESTIMATED overall HOMO-LUMO gap:      5.60228566 eV between HOMO at k-point 1 and LUMO at k-point 1
  | This appears to be a direct band gap.
  The gap value is above 0.2 eV. Unless you are using a very sparse k-point grid,
  this system is most likely an insulator or a semiconductor.

  Total energy components:
  | Sum of eigenvalues            :        -956.79898728 Ha      -26035.82513214 eV
  | XC energy correction          :        -114.19310901 Ha       -3107.35259643 eV
  | XC potential correction       :         147.49217603 Ha        4013.46631257 eV
  | Free-atom electrostatic energy:        -734.38192169 Ha      -19983.54884086 eV
  | Hartree energy correction     :          -0.10952285 Ha          -2.98026825 eV
  | Entropy correction            :           0.00000000 Ha           0.00000000 eV
  | ---------------------------
  | Total energy                  :       -1657.99136479 Ha      -45116.24052510 eV
  | Total energy, T -> 0          :       -1657.99136479 Ha      -45116.24052510 eV  <-- do not rely on this value for anything but (periodic) metals
  | Electronic free energy        :       -1657.99136479 Ha      -45116.24052510 eV

  Derived energy quantities:
  | Kinetic energy                :        1665.25501597 Ha       45313.89453013 eV
  | Electrostatic energy          :       -3209.05327176 Ha      -87322.78245881 eV
  | Energy correction for multipole
  | error in Hartree potential    :           0.00040058 Ha           0.01090032 eV
  | Sum of eigenvalues per atom                           :       -3254.47814152 eV
  | Total energy (T->0) per atom                          :       -5639.53006564 eV  <-- do not rely on this value for anything but (periodic) metals
  | Electronic free energy per atom                       :       -5639.53006564 eV

  Self-consistency convergence accuracy:
  | Change of charge density      : 0.4231E+00
  | Change of sum of eigenvalues  : 0.3041E+01 eV
  | Change of total energy        : 0.1234E+00 eV

  End self-consistency iteration #     1       :  max(cpu_time)    wall_clock(cpu1)
  | Time for this iteration                    :        0.248 s           0.339 s
  | Charge density update                      :        0.060 s           0.089 s
  | Density mixing & preconditioning           :        0.068 s           0.078 s
  | Hartree multipole update                   :        0.008 s           0.008 s
  | Hartree multipole summation                :        0.096 s           0.135 s
  | Integration                                :        0.020 s           0.015 s
  | Solution of K.-S. eqns.                    :        0.004 s           0.003 s
  | Total energy evaluation                    :        0.004 s           0.001 s
------------------------------------------------------------

------------------------------------------------------------
          Begin self-consistency iteration #    2

  Date     :  20160712, Time     :  195936.787
------------------------------------------------------------
  Evaluating new KS density using the density matrix
  Evaluating density matrix
  Time summed over all CPUs for getting density from density matrix: real work        0.946 s, elapsed        1.109 s
  Integration grid: deviation in total charge (<rho> - N_e) =  -2.842171E-12
  Pulay mixing of updated and previous charge densities.

  Evaluating partitioned Hartree potential by multipole expansion.
  | Analytical far-field extrapolation by fixed multipoles:
  | Hartree multipole sum: apparent total charge =   0.232205E-01
  Summing up the Hartree potential.
  Time summed over all CPUs for potential: real work        4.062 s, elapsed        4.369 s
  | RMS charge density error from multipole expansion :   0.169650E-01
  | Average real-space part of the electrostatic potential :      0.49986538 eV

  Integrating Hamiltonian matrix: batch-based integration.
  Time summed over all CPUs for integration: real work        0.881 s, elapsed        0.956 s

  Updating Kohn-Sham eigenvalues, eigenvectors, occupation numbers, and Fermi level.
  Solving generalized eigenproblem
  Determining occupation numbers for Kohn-Sham eigenstates.
  | Chemical potential (Fermi level) in eV                 : -.31295285E+01
  | Error in electron count due to remaining E_F inaccuracy: -.22296831E-09
  | Maximum occupation number of highest empty state:  2.40E-21

  What follows are estimated values for band gap, HOMO, LUMO, etc.
  | They are estimated on a discrete k-point grid and not necessarily exact.
  | For converged numbers, create a DOS and/or band structure plot on a denser k-grid.

  Highest occupied state (VBM) at     -5.17210341 eV (relative to internal zero)
  | Occupation number:      2.00000000
  | K-point:       1 at    0.000000    0.000000    0.000000 (in units of recip. lattice)

  Lowest unoccupied state (CBM) at    -0.63946518 eV (relative to internal zero)
  | Occupation number:      0.00000000
  | K-point:       1 at    0.000000    0.000000    0.000000 (in units of recip. lattice)

  ESTIMATED overall HOMO-LUMO gap:      4.53263823 eV between HOMO at k-point 1 and LUMO at k-point 1
  | This appears to be a direct band gap.
  The gap value is above 0.2 eV. Unless you are using a very sparse k-point grid,
  this system is most likely an insulator or a semiconductor.

  Total energy components:
  | Sum of eigenvalues            :        -945.15643392 Ha      -25719.01513597 eV
  | XC energy correction          :        -115.09971871 Ha       -3132.02270172 eV
  | XC potential correction       :         148.65519967 Ha        4045.11379608 eV
  | Free-atom electrostatic energy:        -734.38192169 Ha      -19983.54884086 eV
  | Hartree energy correction     :         -11.74198112 Ha        -319.51556292 eV
  | Entropy correction            :           0.00000000 Ha           0.00000000 eV
  | ---------------------------
  | Total energy                  :       -1657.72485576 Ha      -45108.98844539 eV
  | Total energy, T -> 0          :       -1657.72485576 Ha      -45108.98844539 eV  <-- do not rely on this value for anything but (periodic) metals
  | Electronic free energy        :       -1657.72485576 Ha      -45108.98844539 eV

  Derived energy quantities:
  | Kinetic energy                :        1673.37203154 Ha       45534.76976178 eV
  | Electrostatic energy          :       -3215.99716859 Ha      -87511.73550545 eV
  | Energy correction for multipole
  | error in Hartree potential    :           0.04087147 Ha           1.11216925 eV
  | Sum of eigenvalues per atom                           :       -3214.87689200 eV
  | Total energy (T->0) per atom                          :       -5638.62355567 eV  <-- do not rely on this value for anything but (periodic) metals
  | Electronic free energy per atom                       :       -5638.62355567 eV

  Self-consistency convergence accuracy:
  | Change of charge density      : 0.4192E+00
  | Change of sum of eigenvalues  : 0.3168E+03 eV
  | Change of total energy        : 0.7252E+01 eV

  End self-consistency iteration #     2       :  max(cpu_time)    wall_clock(cpu1)
  | Time for this iteration                    :        0.160 s           0.158 s
  | Charge density update                      :        0.024 s           0.018 s
  | Density mixing & preconditioning           :        0.044 s           0.047 s
  | Hartree multipole update                   :        0.004 s           0.002 s
  | Hartree multipole summation                :        0.076 s           0.071 s
  | Integration                                :        0.020 s           0.016 s
  | Solution of K.-S. eqns.                    :        0.004 s           0.002 s
  | Total energy evaluation                    :        0.004 s           0.000 s
------------------------------------------------------------

------------------------------------------------------------
          Begin self-consistency iteration #    3

  Date     :  20160712, Time     :  195936.945
------------------------------------------------------------
  Evaluating new KS density using the density matrix
  Evaluating density matrix
  Time summed over all CPUs for getting density from density matrix: real work        0.854 s, elapsed        0.950 s
  Integration grid: deviation in total charge (<rho> - N_e) =  -2.229967E-10
  Pulay mixing of updated and previous charge densities.

  Evaluating partitioned Hartree potential by multipole expansion.
  | Analytical far-field extrapolation by fixed multipoles:
  | Hartree multipole sum: apparent total charge =   0.239075E-01
  Summing up the Hartree potential.
  Time summed over all CPUs for potential: real work        4.064 s, elapsed        4.372 s
  | RMS charge density error from multipole expansion :   0.173666E-01
  | Average real-space part of the electrostatic potential :      0.51146689 eV

  Integrating Hamiltonian matrix: batch-based integration.
  Time summed over all CPUs for integration: real work        0.838 s, elapsed        0.924 s

  Updating Kohn-Sham eigenvalues, eigenvectors, occupation numbers, and Fermi level.
  Solving generalized eigenproblem
  Determining occupation numbers for Kohn-Sham eigenstates.
  | Chemical potential (Fermi level) in eV                 : -.30919616E+01
  | Error in electron count due to remaining E_F inaccuracy: -.26903990E-09
  | Maximum occupation number of highest empty state:  2.60E-21

  What follows are estimated values for band gap, HOMO, LUMO, etc.
  | They are estimated on a discrete k-point grid and not necessarily exact.
  | For converged numbers, create a DOS and/or band structure plot on a denser k-grid.

  Highest occupied state (VBM) at     -5.11540858 eV (relative to internal zero)
  | Occupation number:      2.00000000
  | K-point:       1 at    0.000000    0.000000    0.000000 (in units of recip. lattice)

  Lowest unoccupied state (CBM) at    -0.60293286 eV (relative to internal zero)
  | Occupation number:      0.00000000
  | K-point:       1 at    0.000000    0.000000    0.000000 (in units of recip. lattice)

  ESTIMATED overall HOMO-LUMO gap:      4.51247572 eV between HOMO at k-point 1 and LUMO at k-point 1
  | This appears to be a direct band gap.
  The gap value is above 0.2 eV. Unless you are using a very sparse k-point grid,
  this system is most likely an insulator or a semiconductor.

  Total energy components:
  | Sum of eigenvalues            :        -944.88119340 Ha      -25711.52546052 eV
  | XC energy correction          :        -115.12226970 Ha       -3132.63634543 eV
  | XC potential correction       :         148.68436932 Ha        4045.90754276 eV
  | Free-atom electrostatic energy:        -734.38192169 Ha      -19983.54884086 eV
  | Hartree energy correction     :         -12.02213650 Ha        -327.13897878 eV
  | Entropy correction            :           0.00000000 Ha           0.00000000 eV
  | ---------------------------
  | Total energy                  :       -1657.72315197 Ha      -45108.94208283 eV
  | Total energy, T -> 0          :       -1657.72315197 Ha      -45108.94208283 eV  <-- do not rely on this value for anything but (periodic) metals
  | Electronic free energy        :       -1657.72315197 Ha      -45108.94208283 eV

  Derived energy quantities:
  | Kinetic energy                :        1673.53133247 Ha       45539.10456060 eV
  | Electrostatic energy          :       -3216.13221474 Ha      -87515.41029800 eV
  | Energy correction for multipole
  | error in Hartree potential    :           0.04183675 Ha           1.13843577 eV
  | Sum of eigenvalues per atom                           :       -3213.94068257 eV
  | Total energy (T->0) per atom                          :       -5638.61776035 eV  <-- do not rely on this value for anything but (periodic) metals
  | Electronic free energy per atom                       :       -5638.61776035 eV

  Self-consistency convergence accuracy:
  | Change of charge density      : 0.7187E-01
  | Change of sum of eigenvalues  : 0.7490E+01 eV
  | Change of total energy        : 0.4636E-01 eV

  End self-consistency iteration #     3       :  max(cpu_time)    wall_clock(cpu1)
  | Time for this iteration                    :        0.148 s           0.145 s
  | Charge density update                      :        0.016 s           0.016 s
  | Density mixing & preconditioning           :        0.040 s           0.037 s
  | Hartree multipole update                   :        0.004 s           0.001 s
  | Hartree multipole summation                :        0.076 s           0.072 s
  | Integration                                :        0.016 s           0.015 s
  | Solution of K.-S. eqns.                    :        0.004 s           0.002 s
  | Total energy evaluation                    :        0.004 s           0.000 s
------------------------------------------------------------

------------------------------------------------------------
          Begin self-consistency iteration #    4

  Date     :  20160712, Time     :  195937.090
------------------------------------------------------------
  Evaluating new KS density using the density matrix
  Evaluating density matrix
  Time summed over all CPUs for getting density from density matrix: real work        0.848 s, elapsed        0.949 s
  Integration grid: deviation in total charge (<rho> - N_e) =  -2.690541E-10
  Pulay mixing of updated and previous charge densities.

  Evaluating partitioned Hartree potential by multipole expansion.
  | Analytical far-field extrapolation by fixed multipoles:
  | Hartree multipole sum: apparent total charge =   0.336780E-01
  Summing up the Hartree potential.
  Time summed over all CPUs for potential: real work        4.089 s, elapsed        4.395 s
  | RMS charge density error from multipole expansion :   0.195711E-01
  | Average real-space part of the electrostatic potential :      0.56362546 eV

  Integrating Hamiltonian matrix: batch-based integration.
  Time summed over all CPUs for integration: real work        0.840 s, elapsed        0.946 s

  Updating Kohn-Sham eigenvalues, eigenvectors, occupation numbers, and Fermi level.
  Solving generalized eigenproblem
  Determining occupation numbers for Kohn-Sham eigenstates.
  | Chemical potential (Fermi level) in eV                 : -.29459833E+01
  | Error in electron count due to remaining E_F inaccuracy: -.20623929E-08
  | Maximum occupation number of highest empty state:  3.41E-21

  What follows are estimated values for band gap, HOMO, LUMO, etc.
  | They are estimated on a discrete k-point grid and not necessarily exact.
  | For converged numbers, create a DOS and/or band structure plot on a denser k-grid.

  Highest occupied state (VBM) at     -4.76283019 eV (relative to internal zero)
  | Occupation number:      1.99999997
  | K-point:       1 at    0.000000    0.000000    0.000000 (in units of recip. lattice)

  Lowest unoccupied state (CBM) at    -0.40875854 eV (relative to internal zero)
  | Occupation number:      0.00000000
  | K-point:       1 at    0.000000    0.000000    0.000000 (in units of recip. lattice)

  ESTIMATED overall HOMO-LUMO gap:      4.35407165 eV between HOMO at k-point 1 and LUMO at k-point 1
  | This appears to be a direct band gap.
  The gap value is above 0.2 eV. Unless you are using a very sparse k-point grid,
  this system is most likely an insulator or a semiconductor.

  Total energy components:
  | Sum of eigenvalues            :        -943.56331771 Ha      -25675.66423841 eV
  | XC energy correction          :        -115.18451795 Ha       -3134.33020645 eV
  | XC potential correction       :         148.78611887 Ha        4048.67628884 eV
  | Free-atom electrostatic energy:        -734.38192169 Ha      -19983.54884086 eV
  | Hartree energy correction     :         -13.37669409 Ha        -363.99836631 eV
  | Entropy correction            :           0.00000000 Ha           0.00000000 eV
  | ---------------------------
  | Total energy                  :       -1657.72033258 Ha      -45108.86536319 eV
  | Total energy, T -> 0          :       -1657.72033258 Ha      -45108.86536319 eV  <-- do not rely on this value for anything but (periodic) metals
  | Electronic free energy        :       -1657.72033258 Ha      -45108.86536319 eV

  Derived energy quantities:
  | Kinetic energy                :        1673.17556854 Ha       45529.42373145 eV
  | Electrostatic energy          :       -3215.71138316 Ha      -87503.95888819 eV
  | Energy correction for multipole
  | error in Hartree potential    :           0.04827515 Ha           1.31363376 eV
  | Sum of eigenvalues per atom                           :       -3209.45802980 eV
  | Total energy (T->0) per atom                          :       -5638.60817040 eV  <-- do not rely on this value for anything but (periodic) metals
  | Electronic free energy per atom                       :       -5638.60817040 eV

  Self-consistency convergence accuracy:
  | Change of charge density      : 0.7057E-01
  | Change of sum of eigenvalues  : 0.3586E+02 eV
  | Change of total energy        : 0.7672E-01 eV

  End self-consistency iteration #     4       :  max(cpu_time)    wall_clock(cpu1)
  | Time for this iteration                    :        0.152 s           0.146 s
  | Charge density update                      :        0.016 s           0.015 s
  | Density mixing & preconditioning           :        0.040 s           0.038 s
  | Hartree multipole update                   :        0.004 s           0.001 s
  | Hartree multipole summation                :        0.076 s           0.072 s
  | Integration                                :        0.020 s           0.015 s
  | Solution of K.-S. eqns.                    :        0.004 s           0.002 s
  | Total energy evaluation                    :        0.004 s           0.001 s
------------------------------------------------------------

------------------------------------------------------------
          Begin self-consistency iteration #    5

  Date     :  20160712, Time     :  195937.236
------------------------------------------------------------
  Evaluating new KS density using the density matrix
  Evaluating density matrix
  Time summed over all CPUs for getting density from density matrix: real work        0.850 s, elapsed        0.948 s
  Integration grid: deviation in total charge (<rho> - N_e) =  -2.062365E-09
  Pulay mixing of updated and previous charge densities.

  Evaluating partitioned Hartree potential by multipole expansion.
  | Analytical far-field extrapolation by fixed multipoles:
  | Hartree multipole sum: apparent total charge =   0.327896E-01
  Summing up the Hartree potential.
  Time summed over all CPUs for potential: real work        4.087 s, elapsed        4.395 s
  | RMS charge density error from multipole expansion :   0.192340E-01
  | Average real-space part of the electrostatic potential :      0.55408886 eV

  Integrating Hamiltonian matrix: batch-based integration.
  Time summed over all CPUs for integration: real work        0.838 s, elapsed        0.927 s

  Updating Kohn-Sham eigenvalues, eigenvectors, occupation numbers, and Fermi level.
  Solving generalized eigenproblem
  Determining occupation numbers for Kohn-Sham eigenstates.
  | Chemical potential (Fermi level) in eV                 : -.29743204E+01
  | Error in electron count due to remaining E_F inaccuracy: -.17194850E-08
  | Maximum occupation number of highest empty state:  3.31E-21

  What follows are estimated values for band gap, HOMO, LUMO, etc.
  | They are estimated on a discrete k-point grid and not necessarily exact.
  | For converged numbers, create a DOS and/or band structure plot on a denser k-grid.

  Highest occupied state (VBM) at     -4.80962850 eV (relative to internal zero)
  | Occupation number:      1.99999998
  | K-point:       1 at    0.000000    0.000000    0.000000 (in units of recip. lattice)

  Lowest unoccupied state (CBM) at    -0.44032852 eV (relative to internal zero)
  | Occupation number:      0.00000000
  | K-point:       1 at    0.000000    0.000000    0.000000 (in units of recip. lattice)

  ESTIMATED overall HOMO-LUMO gap:      4.36929998 eV between HOMO at k-point 1 and LUMO at k-point 1
  | This appears to be a direct band gap.
  The gap value is above 0.2 eV. Unless you are using a very sparse k-point grid,
  this system is most likely an insulator or a semiconductor.

  Total energy components:
  | Sum of eigenvalues            :        -943.78963019 Ha      -25681.82251411 eV
  | XC energy correction          :        -115.16590905 Ha       -3133.82383255 eV
  | XC potential correction       :         148.76193760 Ha        4048.01828297 eV
  | Free-atom electrostatic energy:        -734.38192169 Ha      -19983.54884086 eV
  | Hartree energy correction     :         -13.14474135 Ha        -357.68661114 eV
  | Entropy correction            :           0.00000000 Ha           0.00000000 eV
  | ---------------------------
  | Total energy                  :       -1657.72026468 Ha      -45108.86351569 eV
  | Total energy, T -> 0          :       -1657.72026468 Ha      -45108.86351569 eV  <-- do not rely on this value for anything but (periodic) metals
  | Electronic free energy        :       -1657.72026468 Ha      -45108.86351569 eV

  Derived energy quantities:
  | Kinetic energy                :        1673.04885904 Ha       45525.97579068 eV
  | Electrostatic energy          :       -3215.60321467 Ha      -87501.01547382 eV
  | Energy correction for multipole
  | error in Hartree potential    :           0.04747035 Ha           1.29173393 eV
  | Sum of eigenvalues per atom                           :       -3210.22781426 eV
  | Total energy (T->0) per atom                          :       -5638.60793946 eV  <-- do not rely on this value for anything but (periodic) metals
  | Electronic free energy per atom                       :       -5638.60793946 eV

  Self-consistency convergence accuracy:
  | Change of charge density      : 0.5457E-02
  | Change of sum of eigenvalues  : -.6158E+01 eV
  | Change of total energy        : 0.1847E-02 eV

  End self-consistency iteration #     5       :  max(cpu_time)    wall_clock(cpu1)
  | Time for this iteration                    :        0.148 s           0.146 s
  | Charge density update                      :        0.016 s           0.016 s
  | Density mixing & preconditioning           :        0.040 s           0.038 s
  | Hartree multipole update                   :        0.004 s           0.001 s
  | Hartree multipole summation                :        0.076 s           0.072 s
  | Integration                                :        0.016 s           0.015 s
  | Solution of K.-S. eqns.                    :        0.004 s           0.003 s
  | Total energy evaluation                    :        0.000 s           0.001 s
------------------------------------------------------------

------------------------------------------------------------
          Begin self-consistency iteration #    6

  Date     :  20160712, Time     :  195937.382
------------------------------------------------------------
  Evaluating new KS density using the density matrix
  Evaluating density matrix
  Time summed over all CPUs for getting density from density matrix: real work        0.851 s, elapsed        0.954 s
  Integration grid: deviation in total charge (<rho> - N_e) =  -1.719513E-09
  Pulay mixing of updated and previous charge densities.

  Evaluating partitioned Hartree potential by multipole expansion.
  | Analytical far-field extrapolation by fixed multipoles:
  | Hartree multipole sum: apparent total charge =   0.154845E-01
  Summing up the Hartree potential.
  Time summed over all CPUs for potential: real work        4.084 s, elapsed        4.387 s
  | RMS charge density error from multipole expansion :   0.190168E-01
  | Average real-space part of the electrostatic potential :      0.55703031 eV

  Integrating Hamiltonian matrix: batch-based integration.
  Time summed over all CPUs for integration: real work        0.838 s, elapsed        0.925 s

  Updating Kohn-Sham eigenvalues, eigenvectors, occupation numbers, and Fermi level.
  Solving generalized eigenproblem
  Determining occupation numbers for Kohn-Sham eigenstates.
  | Chemical potential (Fermi level) in eV                 : -.29727430E+01
  | Error in electron count due to remaining E_F inaccuracy: -.18827251E-08
  | Maximum occupation number of highest empty state:  3.46E-21

  What follows are estimated values for band gap, HOMO, LUMO, etc.
  | They are estimated on a discrete k-point grid and not necessarily exact.
[...]
  | Occupation number:      0.00000000
  | K-point:       1 at    0.000000    0.000000    0.000000 (in units of recip. lattice)

  ESTIMATED overall HOMO-LUMO gap:      4.35816081 eV between HOMO at k-point 1 and LUMO at k-point 1
  | This appears to be a direct band gap.
  The gap value is above 0.2 eV. Unless you are using a very sparse k-point grid,
  this system is most likely an insulator or a semiconductor.

  Self-consistency cycle converged.

  End self-consistency iteration #    18       :  max(cpu_time)    wall_clock(cpu1)
  | Time for this iteration                    :        0.544 s           0.585 s
  | Charge density & force component update    :        0.264 s           0.294 s
  | Density mixing                             :        0.004 s           0.001 s
  | Hartree multipole update                   :        0.004 s           0.001 s
  | Hartree multipole summation                :        0.260 s           0.258 s
  | Integration                                :        0.016 s           0.014 s
  | Solution of K.-S. eqns.                    :        0.004 s           0.003 s
  | Total energy evaluation                    :        0.008 s           0.012 s
------------------------------------------------------------
  Obtaining max. number of non-zero basis functions in each batch .
  Evaluating KS electron density on previously omitted grid points, using the density matrix.
  Evaluating density matrix
------------------------------------------------------------
  Quadrupole information:
  | electronic quadrupole moment [eAng^2]     :         -0.705791781636952E+02        -0.705791781633823E+02         0.141158356327077E+03
  | ionic quadrupole moment [eAng^2]          :         -0.715310670000000E+02        -0.715310670000000E+02         0.143062134000000E+03
  | Total quadrupole moment [eAng^2]          :         -0.951888836617694E+00        -0.951888836304832E+00         0.190377767292253E+01
  Removing unitary transformations (pure translations, rotations) from forces on atoms.
  Atomic forces before filtering:
  | Net force on center of mass :  -.132365E-08 0.192019E-08 0.194584E-08 eV/A
  Atomic forces after filtering:
  | Net force on center of mass :  0.228461E-24 0.456923E-24 0.332307E-24 eV/A

  Energy and forces in a compact form:
  | Total energy uncorrected      :         -0.451088630324780E+05 eV
  | Total energy corrected        :         -0.451088630324763E+05 eV  <-- do not rely on this value for anything but (periodic) metals
  | Electronic free energy        :         -0.451088630324745E+05 eV
  Total atomic forces (unitary forces cleaned) [eV/Ang]:
  |   1         -0.238113656146223E-08         -0.183963318616635E-08         -0.762456275928239E-09
  |   2          0.125699837799755E-08          0.235462720512593E-08          0.638131331996928E-09
  |   3          0.180263434266623E-08         -0.109497061248884E-08         -0.347747247498338E-08
  |   4         -0.136232873829037E-08          0.156589798293292E-08          0.470030566688304E-08
  |   5          0.169937345823722E-09         -0.241748003530338E-09         -0.239941396272136E-09
  |   6          0.170851805774251E-09         -0.225141048503692E-09         -0.305233070344155E-09
  |   7          0.166700812775544E-09         -0.216310227983703E-09         -0.296959424899906E-09
  |   8          0.176342614715306E-09         -0.302722109385933E-09         -0.256374356452154E-09

  ------------------------------------ 
  Start decomposition of the XC Energy 
  ------------------------------------ 
  Hartree-Fock part   :          0.000000000 Ha              0.000000000 eV
  ------------------------------------ 
  X Energy            :       -112.141194168 Ha          -3051.517152788 eV
  C Energy GGA        :         -3.032536108 Ha            -82.519506047 eV
  Total XC Energy     :       -115.173730276 Ha          -3134.036658835 eV
  LDA X and C from self-consistent density 
  X Energy LDA        :       -103.699860779 Ha          -2821.816784246 eV
  C Energy LDA        :         -6.006856229 Ha           -163.454874487 eV
  ------------------------------------ 
  End decomposition of the XC Energy 
  ------------------------------------ 

  Performing Mulliken charge analysis on all atoms.
  Full analysis (per state, per k-point, etc.) will NOT be written to separate file 'Mulliken.out'.
  This file can be requested by stating 'output mulliken' explicitly.
  Summary of the per-atom charge analysis:
  |
  |  atom       electrons          charge             l=0             l=1
  |     1       17.199645       -1.199645        5.848090       11.351555
  |     2       17.199645       -1.199645        5.848090       11.351555
  |     3       17.199645       -1.199645        5.848090       11.351555
  |     4       17.199645       -1.199645        5.848090       11.351555
  |     5        2.800355        1.199645        2.800355
  |     6        2.800355        1.199645        2.800355
  |     7        2.800355        1.199645        2.800355
  |     8        2.800355        1.199645        2.800355
  |
  | Total       80.000000        0.000000
 

  Calculating atom-projected density of states ...
  | Chemical potential is  -2.973294 eV.
  | writing projected DOS (shifted by the chemical potential) for species S to file atom_projected_dos_S0001.dat.
  | writing projected DOS (raw data) for species S to file atom_proj_dos_S0001_raw.dat.
  | writing projected DOS (shifted by the chemical potential) for species S to file atom_projected_dos_S0002.dat.
  | writing projected DOS (raw data) for species S to file atom_proj_dos_S0002_raw.dat.
  | writing projected DOS (shifted by the chemical potential) for species S to file atom_projected_dos_S0003.dat.
  | writing projected DOS (raw data) for species S to file atom_proj_dos_S0003_raw.dat.
  | writing projected DOS (shifted by the chemical potential) for species S to file atom_projected_dos_S0004.dat.
  | writing projected DOS (raw data) for species S to file atom_proj_dos_S0004_raw.dat.
  | writing projected DOS (shifted by the chemical potential) for species Be to file atom_projected_dos_Be0005.dat.
  | writing projected DOS (raw data) for species Be to file atom_proj_dos_Be0005_raw.dat.
  | writing projected DOS (shifted by the chemical potential) for species Be to file atom_projected_dos_Be0006.dat.
  | writing projected DOS (raw data) for species Be to file atom_proj_dos_Be0006_raw.dat.
  | writing projected DOS (shifted by the chemical potential) for species Be to file atom_projected_dos_Be0007.dat.
  | writing projected DOS (raw data) for species Be to file atom_proj_dos_Be0007_raw.dat.
  | writing projected DOS (shifted by the chemical potential) for species Be to file atom_projected_dos_Be0008.dat.
  | writing projected DOS (raw data) for species Be to file atom_proj_dos_Be0008_raw.dat.
  Performing Hirshfeld analysis of fragment charges and moments.
  ----------------------------------------------------------------------
  | Atom     1: S
  |   Hirshfeld charge        :     -0.40676152
  |   Free atom volume        :     75.31177390
  |   Hirshfeld volume        :     67.64172292
  |   Hirshfeld dipole vector :      0.00000000       0.00000000      -0.00000000
  |   Hirshfeld dipole moment :      0.00000000
  |   Hirshfeld second moments:      0.12868074       0.00000000       0.00000000
  |                                  0.00000000       0.12868074      -0.00000000
  |                                  0.00000000      -0.00000000       0.12868074
  ----------------------------------------------------------------------
  | Atom     2: S
  |   Hirshfeld charge        :     -0.40676152
  |   Free atom volume        :     75.31177390
  |   Hirshfeld volume        :     67.64172292
  |   Hirshfeld dipole vector :     -0.00000000       0.00000000       0.00000000
  |   Hirshfeld dipole moment :      0.00000000
  |   Hirshfeld second moments:      0.12868074       0.00000000      -0.00000000
  |                                  0.00000000       0.12868074      -0.00000000
  |                                 -0.00000000      -0.00000000       0.12868074
  ----------------------------------------------------------------------
  | Atom     3: S
  |   Hirshfeld charge        :     -0.40676152
  |   Free atom volume        :     75.31177390
  |   Hirshfeld volume        :     67.64172292
  |   Hirshfeld dipole vector :     -0.00000000      -0.00000000      -0.00000000
  |   Hirshfeld dipole moment :      0.00000000
  |   Hirshfeld second moments:      0.12868074      -0.00000000       0.00000000
  |                                 -0.00000000       0.12868074       0.00000000
  |                                  0.00000000       0.00000000       0.12868074
  ----------------------------------------------------------------------
  | Atom     4: S
  |   Hirshfeld charge        :     -0.40676152
  |   Free atom volume        :     75.31177390
  |   Hirshfeld volume        :     67.64172292
  |   Hirshfeld dipole vector :     -0.00000000      -0.00000000       0.00000000
  |   Hirshfeld dipole moment :      0.00000000
  |   Hirshfeld second moments:      0.12868074      -0.00000000       0.00000000
  |                                 -0.00000000       0.12868074      -0.00000000
  |                                  0.00000000      -0.00000000       0.12868074
  ----------------------------------------------------------------------
  | Atom     5: Be
  |   Hirshfeld charge        :      0.40984022
  |   Free atom volume        :     53.67172467
  |   Hirshfeld volume        :     47.22129740
  |   Hirshfeld dipole vector :      0.00000000      -0.00000000      -0.00000000
  |   Hirshfeld dipole moment :      0.00000000
  |   Hirshfeld second moments:      0.18936573      -0.00000000       0.00000000
  |                                 -0.00000000       0.18936573      -0.00000000
  |                                  0.00000000      -0.00000000       0.18936573
  ----------------------------------------------------------------------
  | Atom     6: Be
  |   Hirshfeld charge        :      0.40984022
  |   Free atom volume        :     53.67172467
  |   Hirshfeld volume        :     47.22129740
  |   Hirshfeld dipole vector :      0.00000000       0.00000000      -0.00000000
  |   Hirshfeld dipole moment :      0.00000000
  |   Hirshfeld second moments:      0.18936573       0.00000000      -0.00000000
  |                                  0.00000000       0.18936573      -0.00000000
  |                                 -0.00000000      -0.00000000       0.18936573
  ----------------------------------------------------------------------
  | Atom     7: Be
  |   Hirshfeld charge        :      0.40984022
  |   Free atom volume        :     53.67172467
  |   Hirshfeld volume        :     47.22129740
  |   Hirshfeld dipole vector :     -0.00000000       0.00000000      -0.00000000
  |   Hirshfeld dipole moment :      0.00000000
  |   Hirshfeld second moments:      0.18936573       0.00000000      -0.00000000
  |                                  0.00000000       0.18936573       0.00000000
  |                                 -0.00000000       0.00000000       0.18936573
  ----------------------------------------------------------------------
  | Atom     8: Be
  |   Hirshfeld charge        :      0.40984022
  |   Free atom volume        :     53.67172467
  |   Hirshfeld volume        :     47.22129740
  |   Hirshfeld dipole vector :     -0.00000000      -0.00000000      -0.00000000
  |   Hirshfeld dipole moment :      0.00000000
  |   Hirshfeld second moments:      0.18936573       0.00000000       0.00000000
  |                                  0.00000000       0.18936573       0.00000000
  |                                  0.00000000       0.00000000       0.18936573
  ----------------------------------------------------------------------

  Post-scf processing of Kohn-Sham eigenvalues on a denser k-point grid.
  | Using dos_kgrid_factors to calculate post-scf total density of states.
  | Electron chemical potential:    -2.973294165415 eV.
  Integrating Hamiltonian matrix: batch-based integration.
  Time summed over all CPUs for integration: real work        0.834 s, elapsed        0.937 s
  Processing batch of k-points:     1     1     1
  Processing batch of k-points:     1     1     2
  Processing batch of k-points:     1     1     3
  Processing batch of k-points:     1     2     1
  Processing batch of k-points:     1     2     2
  Processing batch of k-points:     1     2     3
  Processing batch of k-points:     1     3     1
  Processing batch of k-points:     1     3     2
  Processing batch of k-points:     1     3     3
  Processing batch of k-points:     2     1     1
  Processing batch of k-points:     2     1     2
  Processing batch of k-points:     2     1     3
  Processing batch of k-points:     2     2     1
  Processing batch of k-points:     2     2     2
  Processing batch of k-points:     2     2     3
  Processing batch of k-points:     2     3     1
  Processing batch of k-points:     2     3     2
  Processing batch of k-points:     2     3     3
  Processing batch of k-points:     3     1     1
  Processing batch of k-points:     3     1     2
  Processing batch of k-points:     3     1     3
  Processing batch of k-points:     3     2     1
  Processing batch of k-points:     3     2     2
  Processing batch of k-points:     3     2     3
  Processing batch of k-points:     3     3     1
  Processing batch of k-points:     3     3     2
  Processing batch of k-points:     3     3     3
  | writing perturbative DOS (shifted by electron chemical potential) to file KS_dos_total.dat
  | writing perturbative DOS (raw data) to file KS_dos_total_raw.dat

  -------------------------------------------------------------------
  Writing the requested band structure output:
  -------------------------------------------------------------------

  Integrating Hamiltonian matrix: batch-based integration.
  Time summed over all CPUs for integration: real work        0.835 s, elapsed        0.935 s

  Treating all   20 k-points in band plot segment #   1:


  "Band gap" along reciprocal space direction number:    1
  | Lowest unoccupied state:      -0.43992836 eV
  | Highest occupied state :      -4.79808917 eV
  | Energy difference      :       4.35816081 eV


  Treating all   20 k-points in band plot segment #   2:


  "Band gap" along reciprocal space direction number:    2
  | Lowest unoccupied state:       2.72622072 eV
  | Highest occupied state :      -5.50115220 eV
  | Energy difference      :       8.22737292 eV


  Treating all   20 k-points in band plot segment #   3:


  "Band gap" along reciprocal space direction number:    3
  | Lowest unoccupied state:       2.26630850 eV
  | Highest occupied state :      -5.30510366 eV
  | Energy difference      :       7.57141215 eV


  Treating all   20 k-points in band plot segment #   4:


  "Band gap" along reciprocal space direction number:    4
  | Lowest unoccupied state:      -0.43992836 eV
  | Highest occupied state :      -4.79808917 eV
  | Energy difference      :       4.35816081 eV


  Treating all   20 k-points in band plot segment #   5:


  "Band gap" along reciprocal space direction number:    5
  | Lowest unoccupied state:      -0.43992836 eV
  | Highest occupied state :      -4.79808917 eV
  | Energy difference      :       4.35816081 eV


  Treating all   20 k-points in band plot segment #   6:


  "Band gap" along reciprocal space direction number:    6
  | Lowest unoccupied state:       1.80843395 eV
  | Highest occupied state :      -5.30510366 eV
  | Energy difference      :       7.11353761 eV


  Treating all   20 k-points in band plot segment #   7:


  "Band gap" along reciprocal space direction number:    7
  | Lowest unoccupied state:       2.26630850 eV
  | Highest occupied state :      -5.30510366 eV
  | Energy difference      :       7.57141215 eV


  Treating all   20 k-points in band plot segment #   8:


  "Band gap" along reciprocal space direction number:    8
  | Lowest unoccupied state:       1.80843395 eV
  | Highest occupied state :      -5.56013810 eV
  | Energy difference      :       7.36857205 eV


  Treating all   20 k-points in band plot segment #   9:


  "Band gap" along reciprocal space direction number:    9
  | Lowest unoccupied state:       1.80843395 eV
  | Highest occupied state :      -5.30510366 eV
  | Energy difference      :       7.11353761 eV


  Treating all   20 k-points in band plot segment #  10:


  "Band gap" along reciprocal space direction number:   10
  | Lowest unoccupied state:       2.26630850 eV
  | Highest occupied state :      -5.30285974 eV
  | Energy difference      :       7.56916824 eV

  "Band gap" of total set of bands:
  | Lowest unoccupied state:      -0.43992836 eV
  | Highest occupied state :      -4.79808917 eV
  | Energy difference      :       4.35816081 eV


------------------------------------------------------------------------------
  Final output of selected total energy values:

  The following output summarizes some interesting total energy values
  at the end of a run (AFTER all relaxation, molecular dynamics, etc.).

  | Total energy of the DFT / Hartree-Fock s.c.f. calculation      :         -45108.863032478 eV
  | Final zero-broadening corrected energy (caution - metals only) :         -45108.863032476 eV
  | For reference only, the value of 1 Hartree used in FHI-aims is :             27.211384500 eV

  Before relying on these values, please be sure to understand exactly which
  total energy value is referred to by a given number. Different objects may
  all carry the same name 'total energy'. Definitions:

  Total energy of the DFT / Hartree-Fock s.c.f. calculation:
  | Note that this energy does not include ANY quantities calculated after the
  | s.c.f. cycle, in particular not ANY RPA, MP2, etc. many-body perturbation terms.

  Final zero-broadening corrected energy:
  | For metallic systems only, a broadening of the occupation numbers at the Fermi
  | level can be extrapolated back to zero broadening by an electron-gas inspired
  | formula. For all systems that are not real metals, this value can be
  | meaningless and should be avoided.

------------------------------------------------------------------------------

------------------------------------------------------------
          Leaving FHI-aims.
          Date     :  20160712, Time     :  195940.515

          Computational steps:
          | Number of self-consistency cycles          :           18

          Detailed time accounting                     :  max(cpu_time)    wall_clock(cpu1)
          | Total time                                 :        4.752 s           6.403 s
          | Preparation time                           :        0.196 s           0.551 s
          | Grid partitioning                          :        0.036 s           0.036 s
          | Preloading free-atom quantities on grid    :        0.020 s           0.055 s
          | Free-atom superposition energy             :        0.024 s           0.025 s
          | Total time for integrations                :        0.392 s           0.372 s
          | Total time for solution of K.-S. equations :        0.128 s           0.159 s
          | Total time for density & force components  :        0.604 s           0.636 s
          | Total time for mixing & preconditioning    :        0.692 s           0.671 s
          | Total time for Hartree multipole update    :        0.076 s           0.026 s
          | Total time for Hartree multipole sum       :        1.744 s           1.735 s
          | Total time for total energy evaluation     :        0.052 s           0.042 s
          | Total time for scaled ZORA corrections     :        0.000 s           0.000 s

          Have a nice day.
------------------------------------------------------------
