================================================================================
| EXCITING NEON started                                                        =
|                                                                              =
| compiler: ifort (IFORT) 2021.2.0 20210228                                    =
|                                                                              =
| MPI version using     12 processor(s)                                        =
| |  using MPI-2 features                                                      =
|                                                                              =
| Date (DD-MM-YYYY) : 30-11-2023                                               =
| Time (hh:mm:ss)   : 12:00:39                                                 =
|                                                                              =
| All units are atomic (Hartree, Bohr, etc.)                                   =
================================================================================
 
********************************************************************************
* Ground-state run starting from atomic densities                              *
********************************************************************************
 
++++++++++++++++++++++++++++++++++++++++++++++++++++++++++++++++++++++++++++++++
+ Starting initialization                                                      +
++++++++++++++++++++++++++++++++++++++++++++++++++++++++++++++++++++++++++++++++
 
 Lattice vectors (cartesian) :
     10.5068772529      0.0000000000      0.0000000000
      0.0000000000     10.5068772529      0.0000000000
      0.0000000000      0.0000000000     10.5068772529
 
 Reciprocal lattice vectors (cartesian) :
      0.5980069202      0.0000000000      0.0000000000
      0.0000000000      0.5980069202      0.0000000000
      0.0000000000      0.0000000000      0.5980069202
 
 Unit cell volume                           :    1159.9011415715
 Brillouin zone volume                      :       0.2138546162
 
 Automatic determination of muffin-tin radii :
     global rmt scale                       :       0.9500000000
 
 Species :    1 (O)
     parameters loaded from                 :    O.xml
     name                                   :    oxygen
     nuclear charge                         :      -8.00000000
     electronic charge                      :       8.00000000
     atomic mass                            :   29165.12203000
     muffin-tin radius                      :       1.85800000
     # of radial points in muffin-tin       :     600
 
     atomic positions (lattice) :
       1 :   0.25000000  0.25000000  0.25000000
       2 :   0.75000000  0.75000000  0.25000000
       3 :   0.75000000  0.25000000  0.75000000
       4 :   0.25000000  0.75000000  0.75000000
       5 :   0.25000000  0.25000000  0.75000000
       6 :   0.75000000  0.75000000  0.75000000
       7 :   0.25000000  0.75000000  0.25000000
       8 :   0.75000000  0.25000000  0.25000000
 
 Species :    2 (Po)
     parameters loaded from                 :    Po.xml
     name                                   :    polonium
     nuclear charge                         :     -84.00000000
     electronic charge                      :      84.00000000
     atomic mass                            :  382806.58180000
     muffin-tin radius                      :       2.46400000
     # of radial points in muffin-tin       :    1500
 
     atomic positions (lattice) :
       1 :   0.00000000  0.00000000  0.00000000
       2 :   0.00000000  0.50000000  0.50000000
       3 :   0.50000000  0.00000000  0.50000000
       4 :   0.50000000  0.50000000  0.00000000
 
 Total number of atoms per unit cell        :      12
 
 Spin treatment                             :    spin-unpolarised
 
 Number of Bravais lattice symmetries       :      48
 Number of crystal symmetries               :     192
 
 k-point grid                               :      10   10   10
 Total number of k-points                   :      56
 k-point set is reduced with crystal symmetries
 
 R^MT_min * |G+k|_max (rgkmax)              :       8.19189120
 APWprecision                               :       0.80000000
 Species with R^MT_min                      :       1 (O)
 Maximum |G+k| for APW functions            :       4.40898342
 Maximum |G| for potential and density      :      30.00000000
 Polynomial order for pseudochg. density    :       9
 
 G-vector grid sizes                        :     108   108   108
 Total number of G-vectors                  :  528681
 
 Maximum angular momentum used for
     APW functions                          :      10
     computing H and O matrix elements      :      10
     potential and density                  :      10
     inner part of muffin-tin               :       2
 
 Total nuclear charge                       :    -400.00000000
 Total electronic charge                    :     400.00000000
 Total core charge                          :     200.00000000
 Total valence charge                       :     200.00000000
 
 Effective Wigner radius, r_s               :       0.88462143
 
 Number of empty states                     :      20
 Total number of valence states             :     121
 
 Maximum Hamiltonian size                   :    2255
 Maximum number of plane-waves              :    1743
 Total number of local-orbitals             :     512
 
 Exchange-correlation type                  :      20
     Perdew-Burke-Ernzerhof, Phys. Rev. Lett. 77, 3865 (1996)
     Generalised gradient approximation (GGA)
 
 Smearing scheme                            :    Fermi-Dirac
 Smearing width                             :       0.00367500
 
 Using multisecant Broyden potential mixing
 
++++++++++++++++++++++++++++++++++++++++++++++++++++++++++++++++++++++++++++++++
+ Ending initialization                                                        +
++++++++++++++++++++++++++++++++++++++++++++++++++++++++++++++++++++++++++++++++
 
********************************************************************************
* Groundstate module started                                                   *
********************************************************************************
 Output level for this task is set to high
 
++++++++++++++++++++++++++++++++++++++++++++++++++++++++++++++++++++++++++++++++
+ Self-consistent loop started                                                 +
++++++++++++++++++++++++++++++++++++++++++++++++++++++++++++++++++++++++++++++++
 Density and potential initialised from atomic data
 
 
++++++++++++++++++++++++++++++++++++++++++++++++++++++++++++++++++++++++++++++++
+ SCF iteration number :    1                                                  +
++++++++++++++++++++++++++++++++++++++++++++++++++++++++++++++++++++++++++++++++