------------------------------------------------------------
          Invoking FHI-aims ...

          When using FHI-aims, please cite the following reference:

            Volker Blum, Ralf Gehrke, Felix Hanke, Paula Havu,
            Ville Havu, Xinguo Ren, Karsten Reuter, and Matthias Scheffler,
            'Ab Initio Molecular Simulations with Numeric Atom-Centered Orbitals',
            Computer Physics Communications 180, 2175-2196 (2009)

          In addition, many other developments in FHI-aims are likely important for
          your particular application. A partial list of references is given at the end of
          this file. Thank you for giving credit to the authors of these developments.

          For any questions about FHI-aims, please visit our slack channel at

            https://fhi-aims.slack.com

          and our main development and support site at

            https://aims-git.rz-berlin.mpg.de .

          The latter site, in particular, has a wiki to collect information, as well
          as an issue tracker to log discussions, suggest improvements, and report issues
          or bugs. https://aims-git.rz-berlin.mpg.de is also the main development site
          of the project and all new and updated code versions can be obtained there.
          Please send an email to aims-coordinators@fhi-berlin.mpg.de and we will add
          you to these sites. They are for you and everyone is welcome there.

------------------------------------------------------------



  Date     :  20240327, Time     :  165756.393
  Time zero on CPU 1             :   0.107236400000000E+01  s.
  Internal wall clock time zero  :           480790676.393  s.

  FHI-aims created a unique identifier for this run for later identification
  aims_uuid : BCC97522-14FA-4444-A08D-BD79FD1DF771

  Build configuration of the current instance of FHI-aims
  -------------------------------------------------------
  FHI-aims version      : 221103
  Commit number         : fe4ac0929
  CMake host system     : Linux-3.10.0-1160.76.1.el7.x86_64
  CMake version         : 3.16.2
  Fortran compiler      : /sw/comm/impi/compilers_and_libraries_2019.5.281/linux/mpi/intel64/bin/mpiifort (Intel) version 19.0.5.20190815
  Fortran compiler flags: -O3 -ip -fp-model precise
  C compiler            : /sw/comm/impi/compilers_and_libraries_2019.5.281/linux/mpi/intel64/bin/mpiicc (Intel) version 19.0.5.20190815
  C compiler flags      : -O3 -ip -fp-model precise -std=gnu99
  C++ compiler          : /sw/comm/impi/compilers_and_libraries_2019.5.281/linux/mpi/intel64/bin/mpiicpc (Intel) version 19.0.5.20190815
  C++ compiler flags    : -O3 -ip -fp-model precise
  HIP compiler          :
  HIP compiler flags    :
  HIP GPU arch          :
  ELPA2 kernel          : AVX512
  Using MPI
  Using ScaLAPACK
  Using LibXC
  Using i-PI
  Using RLSY
  Linking against: /sw/compiler/intel/compilers_and_libraries_2019.5.281/linux/mkl/lib/intel64/libmkl_intel_lp64.so
                   /sw/compiler/intel/compilers_and_libraries_2019.5.281/linux/mkl/lib/intel64/libmkl_sequential.so
                   /sw/compiler/intel/compilers_and_libraries_2019.5.281/linux/mkl/lib/intel64/libmkl_core.so
                   /sw/compiler/intel/compilers_and_libraries_2019.5.281/linux/mkl/lib/intel64/libmkl_blacs_intelmpi_lp64.so
                   /sw/compiler/intel/compilers_and_libraries_2019.5.281/linux/mkl/lib/intel64/libmkl_scalapack_lp64.so

  Using       40 parallel tasks.
  Task        0 on host gcn1134 reporting.
  Task        1 on host gcn1134 reporting.
  Task        2 on host gcn1134 reporting.
  Task        3 on host gcn1134 reporting.
  Task        4 on host gcn1134 reporting.
  Task        5 on host gcn1134 reporting.
  Task        6 on host gcn1134 reporting.
  Task        7 on host gcn1134 reporting.
  Task        8 on host gcn1134 reporting.
  Task        9 on host gcn1134 reporting.
  Task       10 on host gcn1134 reporting.
  Task       11 on host gcn1134 reporting.
  Task       12 on host gcn1134 reporting.
  Task       13 on host gcn1134 reporting.
  Task       14 on host gcn1134 reporting.
  Task       15 on host gcn1134 reporting.
  Task       16 on host gcn1134 reporting.
  Task       17 on host gcn1134 reporting.
  Task       18 on host gcn1134 reporting.
  Task       19 on host gcn1134 reporting.
  Task       20 on host gcn1134 reporting.
  Task       21 on host gcn1134 reporting.
  Task       22 on host gcn1134 reporting.
  Task       23 on host gcn1134 reporting.
  Task       24 on host gcn1134 reporting.
  Task       25 on host gcn1134 reporting.
  Task       26 on host gcn1134 reporting.
  Task       27 on host gcn1134 reporting.
  Task       28 on host gcn1134 reporting.
  Task       29 on host gcn1134 reporting.
  Task       30 on host gcn1134 reporting.
  Task       31 on host gcn1134 reporting.
  Task       32 on host gcn1134 reporting.
  Task       33 on host gcn1134 reporting.
  Task       34 on host gcn1134 reporting.
  Task       35 on host gcn1134 reporting.
  Task       36 on host gcn1134 reporting.
  Task       37 on host gcn1134 reporting.
  Task       38 on host gcn1134 reporting.
  Task       39 on host gcn1134 reporting.

  Performing system and environment tests:
  *** Environment variable OMP_NUM_THREADS is set to 
  40
  *** For performance reasons you might want to set it to 1
  | Checking for ScaLAPACK...
  | Testing pdtran()...
  | All pdtran() tests passed.

  Obtaining array dimensions for all initial allocations:
  
  -----------------------------------------------------------------------
  Parsing control.in (first pass over file, find array dimensions only).
  The contents of control.in will be repeated verbatim below
  unless switched off by setting 'verbatim_writeout .false.' .
  in the first line of control.in .
  -----------------------------------------------------------------------
  
  #===============================================================================
  # FHI-aims file: ./control.in
  # Created using the Atomic Simulation Environment (ASE)
  # Wed Mar 27 16:57:52 2024
  #===============================================================================
  xc                                 pbe
  sc_iter_limit                      8000
  occupation_type                    fermi 0.1
  spin                               none
  charge                             0.0
  mixer                              pulay
  n_max_pulay                        10
  charge_mix_param                   0.01
  preconditioner                     kerker 1.5
  override_relativity                .true.
  override_illconditioning           .true.
  compensate_multipole_errors        .false.
  relativistic                       atomic_zora scalar
  sc_accuracy_forces                 0.0001
  compute_forces                     .true.
  compute_analytical_stress          .true.
  k_grid                             4 4 5
  sc_accuracy_rho                    1e-06
  output_level                       MD_light
  use_pimd_wrapper                   localhost 12346
  #===============================================================================
  
  ################################################################################
  #
  #  FHI-aims code project
  #  VB, Fritz-Haber Institut, 2009
  #
  #  Suggested "light" defaults for O atom (to be pasted into control.in file)
  #  Be sure to double-check any results obtained with these settings for post-processing,
  #  e.g., with the "tight" defaults and larger basis sets.
  #
  ################################################################################
    species        O
  #     global species definitions
      nucleus             8
      mass                15.9994
  #
      l_hartree           4
  #
      cut_pot             3.5  1.5  1.0
      basis_dep_cutoff    1e-4
  #
      radial_base         36 5.0
      radial_multiplier   1
       angular_grids specified
        division   0.2659   50
        division   0.4451  110
        division   0.6052  194
        division   0.7543  302
  #      division   0.8014  434
  #      division   0.8507  590
  #      division   0.8762  770
  #      division   0.9023  974
  #      division   1.2339 1202
  #      outer_grid 974
        outer_grid 302
  ################################################################################
  #
  #  Definition of "minimal" basis
  #
  ################################################################################
  #     valence basis states
      valence      2  s   2.
      valence      2  p   4.
  #     ion occupancy
      ion_occ      2  s   1.
      ion_occ      2  p   3.
  ################################################################################
  #
  #  Suggested additional basis functions. For production calculations,
  #  uncomment them one after another (the most important basis functions are
  #  listed first).
  #
  #  Constructed for dimers: 1.0 A, 1.208 A, 1.5 A, 2.0 A, 3.0 A
  #
  ################################################################################
  #  "First tier" - improvements: -699.05 meV to -159.38 meV
  #     hydro 2 p 1.8
  #     hydro 3 d 7.6
  #     hydro 3 s 6.4
  #  "Second tier" - improvements: -49.91 meV to -5.39 meV
  #     hydro 4 f 11.6
  #     hydro 3 p 6.2
  #     hydro 3 d 5.6
  #     hydro 5 g 17.6
  #     hydro 1 s 0.75
  #  "Third tier" - improvements: -2.83 meV to -0.50 meV
  #     ionic 2 p auto
  #     hydro 4 f 10.8
  #     hydro 4 d 4.7
  #     hydro 2 s 6.8
  #  "Fourth tier" - improvements: -0.40 meV to -0.12 meV
  #     hydro 3 p 5
  #     hydro 3 s 3.3
  #     hydro 5 g 15.6
  #     hydro 4 f 17.6
  #     hydro 4 d 14
  # Further basis functions - -0.08 meV and below
  #     hydro 3 s 2.1
  #     hydro 4 d 11.6
  #     hydro 3 p 16
  #     hydro 2 s 17.2
  ################################################################################
  #
  #  FHI-aims code project
  #  VB, Fritz-Haber Institut, 2009
  #
  #  Suggested "light" defaults for Si atom (to be pasted into control.in file)
  #  Be sure to double-check any results obtained with these settings for post-processing,
  #  e.g., with the "tight" defaults and larger basis sets.
  #
  #  2020/09/08 Added f function to "light" after reinspection of Delta test outcomes.
  #             This was done for all of Al-Cl and is a tricky decision since it makes
  #             "light" calculations measurably more expensive for these elements.
  #             Nevertheless, outcomes for P, S, Cl (and to some extent, Si) appear
  #             to justify this choice.
  #
  ################################################################################
    species        Si
  #     global species definitions
      nucleus             14
      mass                28.0855
  #
      l_hartree           4
  #
      cut_pot             3.5          1.5  1.0
      basis_dep_cutoff    1e-4
  #
      radial_base         42 5.0
      radial_multiplier   1
      angular_grids       specified
        division   0.5866   50
        division   0.9616  110
        division   1.2249  194
        division   1.3795  302
  #      division   1.4810  434
  #      division   1.5529  590
  #      division   1.6284  770
  #      division   1.7077  974
  #      division   2.4068 1202
  #      outer_grid   974
        outer_grid 302
  ################################################################################
  #
  #  Definition of "minimal" basis
  #
  ################################################################################
  #     valence basis states
      valence      3  s   2.
      valence      3  p   2.
  #     ion occupancy
      ion_occ      3  s   1.
      ion_occ      3  p   1.
  ################################################################################
  #
  #  Suggested additional basis functions. For production calculations,
  #  uncomment them one after another (the most important basis functions are
  #  listed first).
  #
  #  Constructed for dimers: 1.75 A, 2.0 A, 2.25 A, 2.75 A, 3.75 A
  #
  ################################################################################
  #  "First tier" - improvements: -571.96 meV to -37.03 meV
  #     hydro 3 d 4.2
  #     hydro 2 p 1.4
  #     hydro 4 f 6.2
  #     ionic 3 s auto
  #  "Second tier" - improvements: -16.76 meV to -3.03 meV
  #     hydro 3 d 9
  #     hydro 5 g 9.4
  #     hydro 4 p 4
  #     hydro 1 s 0.65
  #  "Third tier" - improvements: -3.89 meV to -0.60 meV
  #     ionic 3 d auto
  #     hydro 3 s 2.6
  #     hydro 4 f 8.4
  #     hydro 3 d 3.4
  #     hydro 3 p 7.8
  #  "Fourth tier" - improvements: -0.33 meV to -0.11 meV
  #     hydro 2 p 1.6
  #     hydro 5 g 10.8
  #     hydro 5 f 11.2
  #     hydro 3 d 1
  #     hydro 4 s 4.5
  #  Further basis functions that fell out of the optimization - noise
  #  level... < -0.08 meV
  #     hydro 4 d 6.6
  #     hydro 5 g 16.4
  #     hydro 4 d 9
  
  -----------------------------------------------------------------------
  Completed first pass over input file control.in .
  -----------------------------------------------------------------------
  
  
  -----------------------------------------------------------------------
  Parsing geometry.in (first pass over file, find array dimensions only).
  The contents of geometry.in will be repeated verbatim below
  unless switched off by setting 'verbatim_writeout .false.' .
  in the first line of geometry.in .
  -----------------------------------------------------------------------
  
  #=======================================================
  # FHI-aims file: ./geometry.in
  # Created using the Atomic Simulation Environment (ASE)
  # Wed Mar 27 16:57:52 2024
  #=======================================================
  lattice_vector 4.1809000000000003 0.0000000000000000 0.0000000000000000
  lattice_vector 0.0000000000000000 4.1809000000000003 0.0000000000000000
  lattice_vector 0.0000000000000000 0.0000000000000000 2.6620000000000008
  atom_frac 0.3067350600000000 0.3067350600000000 0.0000000000000000 O
  atom_frac 0.6932649399999998 0.6932649399999998 0.0000000000000000 O
  atom_frac 0.1932649399999999 0.8067350600000001 0.5000000000000000 O
  atom_frac 0.8067350600000001 0.1932649399999999 0.5000000000000000 O
  atom_frac -0.0000000000000001 -0.0000000000000001 0.0000000000000000 Si
  atom_frac 0.4999999999999999 0.4999999999999999 0.5000000000000000 Si
  
  -----------------------------------------------------------------------
  Completed first pass over input file geometry.in .
  -----------------------------------------------------------------------
  

  Basic array size parameters:
  | Number of species                 :        2
  | Number of atoms                   :        6
  | Number of lattice vectors         :        3
  | Max. basis fn. angular momentum   :        1
  | Max. atomic/ionic basis occupied n:        3
  | Max. number of basis fn. types    :        1
  | Max. radial fns per species/type  :        5
  | Max. logarithmic grid size        :     1346
  | Max. radial integration grid size :       42
  | Max. angular integration grid size:      302
  | Max. angular grid division number :        8
  | Radial grid for Hartree potential :     1346
  | Number of spin channels           :        1

------------------------------------------------------------
          Reading file control.in.
------------------------------------------------------------
  XC: Using PBE gradient-corrected functionals.
  Maximum number of s.-c. iterations  :  8000
  Occupation type: Fermi broadening, width =   0.100000E+00 eV.
  Spin treatment: No spin polarisation.
  Charge =   0.000000E+00: Neutral system requested explicitly.
  Using pulay charge density mixing.
  Pulay mixing - number of memorized iterations:   10
  Charge density mixing - mixing parameter:     0.0100
  Using Kerker preconditioning with damping at q_0 =     0.1500E+01
  override_relativity: Explicitly overriding any built-in relativity checks.
  If you use this flag, you should really know what you are doing.
  override_illconditioning: Explicitly overriding any built-in checks for an ill-conditioned overlap matrix.
  *** WARNING: If you use this flag, you should really know what you are doing.
  *** DO NOT keep this flag set by default in all your control.in files.
  Switching off the compensation of charge integration errors on the
  3D integration grid.
  Scalar relativistic treatment of kinetic energy: on-site free-atom approximation to ZORA.
  Convergence accuracy of forces:  0.1000E-03
  Forces will be computed.
  Found k-point grid:         4         4         5
  Convergence accuracy of self-consistent charge density:  0.1000E-05
  Requested output level: MD_light
  Using external wrapper (i-PI) for performing (path integral) molecular dynamics
  **Attention: initial geometry.in file will be ignored!
 
  Reading configuration options for species O                   .
  | Found nuclear charge :   8.0000
  | Found atomic mass :    15.9994000000000      amu
  | Found l_max for Hartree potential  :   4
  | Found cutoff potl. onset [A], width [A], scale factor :    3.50000    1.50000    1.00000
  | Threshold for basis-dependent cutoff potential is   0.100000E-03
  | Found data for basic radial integration grid :    36 points, outermost radius =    5.000 A
  | Found multiplier for basic radial grid :   1
  | Found angular grid specification: user-specified.
  | Specified grid contains     5 separate shells.
  | Check grid settings after all constraints further below.
  | Found free-atom valence shell :  2 s   2.000
  | Found free-atom valence shell :  2 p   4.000
  | No ionic wave fns used. Skipping ion_occ.
  | No ionic wave fns used. Skipping ion_occ.
  Species O                   : Missing cutoff potential type.
  Defaulting to exp(1/x)/(1-x)^2 type cutoff potential.
  Species O : No 'logarithmic' tag. Using default grid for free atom:
  | Default logarithmic grid data [bohr] : 0.1000E-03 0.1000E+03 0.1012E+01
  Species O : On-site basis accuracy parameter (for Gram-Schmidt orthonormalisation) not specified.
  Using default value basis_acc =  0.1000000E-03.
  Species O                   : Using default innermost maximum threshold i_radial=  2 for radial functions.
  Species O                   : Default cutoff onset for free atom density etc. : 0.35000000E+01 AA.
  Species O                   : Basic radial grid will be enhanced according to radial_multiplier =   1, to contain    36 grid points.
 
  Reading configuration options for species Si                  .
  | Found nuclear charge :  14.0000
  | Found atomic mass :    28.0855000000000      amu
  | Found l_max for Hartree potential  :   4
  | Found cutoff potl. onset [A], width [A], scale factor :    3.50000    1.50000    1.00000
  | Threshold for basis-dependent cutoff potential is   0.100000E-03
  | Found data for basic radial integration grid :    42 points, outermost radius =    5.000 A
  | Found multiplier for basic radial grid :   1
  | Found angular grid specification: user-specified.
  | Specified grid contains     5 separate shells.
  | Check grid settings after all constraints further below.
  | Found free-atom valence shell :  3 s   2.000
  | Found free-atom valence shell :  3 p   2.000
  | No ionic wave fns used. Skipping ion_occ.
  | No ionic wave fns used. Skipping ion_occ.
  Species Si                  : Missing cutoff potential type.
  Defaulting to exp(1/x)/(1-x)^2 type cutoff potential.
  Species Si: No 'logarithmic' tag. Using default grid for free atom:
  | Default logarithmic grid data [bohr] : 0.1000E-03 0.1000E+03 0.1012E+01
  Species Si: On-site basis accuracy parameter (for Gram-Schmidt orthonormalisation) not specified.
  Using default value basis_acc =  0.1000000E-03.
  Species Si                  : Using default innermost maximum threshold i_radial=  2 for radial functions.
  Species Si                  : Default cutoff onset for free atom density etc. : 0.35000000E+01 AA.
  Species Si                  : Basic radial grid will be enhanced according to radial_multiplier =   1, to contain    42 grid points.
 
  Finished reading input file 'control.in'.
 
------------------------------------------------------------


------------------------------------------------------------
          Reading geometry description geometry.in.
------------------------------------------------------------
  | The smallest distance between any two atoms is         1.75424004 AA.
  | The first atom of this pair is atom number                      1 .
  | The second atom of this pair is atom number                     6 .
  | Wigner-Seitz cell of the first atom image           0     0     0 .
  | (The Wigner-Seitz cell of the second atom is 0 0 0  by definition.)

  Symmetry information by spglib:
  | Precision set to  0.1E-04
  | Number of Operations  : 16
  | Space group           : 136
  | International         : P4_2/mnm B
  | Schoenflies           : D4h^14
  Input structure read successfully.
  The structure contains        6 atoms,  and a total of         60.000 electrons.

  Input geometry:
  | Unit cell:
  |        4.18090000        0.00000000        0.00000000
  |        0.00000000        4.18090000        0.00000000
  |        0.00000000        0.00000000        2.66200000
  | Atomic structure:
  |       Atom                x [A]            y [A]            z [A]
  |    1: Species O             1.28242861        1.28242861        0.00000000
  |    2: Species O             2.89847139        2.89847139        0.00000000
  |    3: Species O             0.80802139        3.37287861        1.33100000
  |    4: Species O             3.37287861        0.80802139        1.33100000
  |    5: Species Si           -0.00000000       -0.00000000        0.00000000
  |    6: Species Si            2.09045000        2.09045000        1.33100000

  Lattice parameters for 3D lattice (in Angstroms) :     4.180900    4.180900    2.662000
  Angle(s) between unit vectors (in degrees)       :    90.000000   90.000000   90.000000


  Quantities derived from the lattice vectors (in Angstrom^-1):
  | Reciprocal lattice vector 1:  1.502831  0.000000  0.000000
  | Reciprocal lattice vector 2:  0.000000  1.502831  0.000000
  | Reciprocal lattice vector 3:  0.000000  0.000000  2.360325
  | Unit cell volume                               :   0.465316E+02  Angstrom^3

 
  Finished reading input file 'geometry.in'.
 

 
  Consistency checks for stacksize environment parameter are next.
 
  | Maximum stacksize for task 0: unlimited
  | Maximum stacksize for task 1: unlimited
  | Maximum stacksize for task 2: unlimited
  | Maximum stacksize for task 3: unlimited
  | Maximum stacksize for task 4: unlimited
  | Maximum stacksize for task 5: unlimited
  | Maximum stacksize for task 6: unlimited
  | Maximum stacksize for task 7: unlimited
  | Maximum stacksize for task 8: unlimited
  | Maximum stacksize for task 9: unlimited
  | Maximum stacksize for task 10: unlimited
  | Maximum stacksize for task 11: unlimited
  | Maximum stacksize for task 12: unlimited
  | Maximum stacksize for task 13: unlimited
  | Maximum stacksize for task 14: unlimited
  | Maximum stacksize for task 15: unlimited
  | Maximum stacksize for task 16: unlimited
  | Maximum stacksize for task 17: unlimited
  | Maximum stacksize for task 18: unlimited
  | Maximum stacksize for task 19: unlimited
  | Maximum stacksize for task 20: unlimited
  | Maximum stacksize for task 21: unlimited
  | Maximum stacksize for task 22: unlimited
  | Maximum stacksize for task 23: unlimited
  | Maximum stacksize for task 24: unlimited
  | Maximum stacksize for task 25: unlimited
  | Maximum stacksize for task 26: unlimited
  | Maximum stacksize for task 27: unlimited
  | Maximum stacksize for task 28: unlimited
  | Maximum stacksize for task 29: unlimited
  | Maximum stacksize for task 30: unlimited
  | Maximum stacksize for task 31: unlimited
  | Maximum stacksize for task 32: unlimited
  | Maximum stacksize for task 33: unlimited
  | Maximum stacksize for task 34: unlimited
  | Maximum stacksize for task 35: unlimited
  | Maximum stacksize for task 36: unlimited
  | Maximum stacksize for task 37: unlimited
  | Maximum stacksize for task 38: unlimited
  | Maximum stacksize for task 39: unlimited
  | Current stacksize for task 0: unlimited
  | Current stacksize for task 1: unlimited
  | Current stacksize for task 2: unlimited
  | Current stacksize for task 3: unlimited
  | Current stacksize for task 4: unlimited
  | Current stacksize for task 5: unlimited
  | Current stacksize for task 6: unlimited
  | Current stacksize for task 7: unlimited
  | Current stacksize for task 8: unlimited
  | Current stacksize for task 9: unlimited
  | Current stacksize for task 10: unlimited
  | Current stacksize for task 11: unlimited
  | Current stacksize for task 12: unlimited
  | Current stacksize for task 13: unlimited
  | Current stacksize for task 14: unlimited
  | Current stacksize for task 15: unlimited
  | Current stacksize for task 16: unlimited
  | Current stacksize for task 17: unlimited
  | Current stacksize for task 18: unlimited
  | Current stacksize for task 19: unlimited
  | Current stacksize for task 20: unlimited
  | Current stacksize for task 21: unlimited
  | Current stacksize for task 22: unlimited
  | Current stacksize for task 23: unlimited
  | Current stacksize for task 24: unlimited
  | Current stacksize for task 25: unlimited
  | Current stacksize for task 26: unlimited
  | Current stacksize for task 27: unlimited
  | Current stacksize for task 28: unlimited
  | Current stacksize for task 29: unlimited
  | Current stacksize for task 30: unlimited
  | Current stacksize for task 31: unlimited
  | Current stacksize for task 32: unlimited
  | Current stacksize for task 33: unlimited
  | Current stacksize for task 34: unlimited
  | Current stacksize for task 35: unlimited
  | Current stacksize for task 36: unlimited
  | Current stacksize for task 37: unlimited
  | Current stacksize for task 38: unlimited
  | Current stacksize for task 39: unlimited
 
  Consistency checks for the contents of control.in are next.
 
  MPI_IN_PLACE appears to work with this MPI implementation.
  | Keeping use_mpi_in_place .true. (see manual).
  Target number of points in a grid batch is not set. Defaulting to  100
  Method for grid partitioning is not set. Defaulting to parallel hash+maxmin partitioning.
  Batch size limit is not set. Defaulting to    200
  By default, will store active basis functions for each batch.
  If in need of memory, prune_basis_once .false. can be used to disable this option.
  communication_type for Hartree potential was not specified.
  Defaulting to calc_hartree .
  Pulay mixer: Number of initial linear mixing iterations not set.
  Defaulting to    0 iterations.
  Work space size for distributed Hartree potential not set.
  Defaulting to   0.200000E+03 MB.
  Algorithm-dependent basis array size parameters:
  | n_max_pulay                         :       10
  Presetting      1001 iterations before the initial mixing cycle
  is restarted anyway using the sc_init_iter criterion / keyword.
  Presetting a factor      1.000 between actual scf density residual
  and density convergence criterion sc_accuracy_rho below which sc_init_iter
  takes no effect.
  Geometry relaxation not requested: no relaxation will be performed.
  Analytical stress will be computed.
  Analytical stress calculation: Only the upper triangle is calculated.
                                 Final output is symmetrized.
  Analytical stress calculation: scf convergence accuracy of stress not set.
                                 Analytical stress self-consistency will not be checked explicitly.
                                 Be sure to set other criteria like sc_accuracy_rho tight enough.
  Forces evaluation will include force correction term due to incomplete self-consistency (default).
  Handling of forces: Unphysical translation and rotation will be removed from forces.
  No accuracy limit for integral partition fn. given. Defaulting to  0.1000E-14.
  No threshold value for u(r) in integrations given. Defaulting to  0.1000E-05.
  No accuracy for occupation numbers given. Defaulting to  0.1000E-12.
  No threshold value for occupation numbers given. Defaulting to  0.0000E+00.
  No accuracy for fermi level given. Defaulting to  0.1000E-19.
  Maximum # of iterations to find E_F not set. Defaulting to  200.
  Preferred method for the eigenvalue solver ('KS_method') not specified in 'control.in'.
  Defaulting to serial version, LAPACK (via ELSI), since more k-points than CPUs available.
  Will not use alltoall communication since running on < 1024 CPUs.
  Threshold for basis singularities not set.
  Default threshold for basis singularities:  0.1000E-04
  partition_type (choice of integration weights) for integrals was not specified.
  | Using a version of the partition function of Stratmann and coworkers ('stratmann_sparse').
  | At each grid point, the set of atoms used to build the partition table is smoothly restricted to
  | only those atoms whose free-atom density would be non-zero at that grid point.
  Partitioning for Hartree potential was not defined. Using partition_type for integrals.
  | Adjusted default value of keyword multip_moments_threshold to:       0.10000000E-11
  | This value may affect high angular momentum components of the Hartree potential in periodic systems.
  Angular momentum expansion for Kerker preconditioner not set explicitly.
  | Using default value of   0
  No explicit requirement for turning off preconditioner.
  | By default, it will be turned off when the charge convergence reaches
  | sc_accuracy_rho  =   0.100000E-05
  No special mixing parameter while Kerker preconditioner is on.
  Using default: charge_mix_param =     0.0100.
  No q(lm)/r^(l+1) cutoff set for long-range Hartree potential.
  | Using default value of  0.100000E-09 .
  | Verify using the multipole_threshold keyword.
  Defaulting to new monopole extrapolation.
  Density update method: automatic selection selected.
  Using density matrix based charge density update.
  Using density matrix based charge density update.
  Using packed matrix style: index .
  Defaulting to use time-reversal symmetry for k-point grid.
  Set 'collect_eigenvectors' to be '.true.' for all serial calculations. This is mandatory.
  Set 'collect_eigenvectors' to be '.true.' for KS_method lapack_fast and serial.
 
  Consistency checks for the contents of geometry.in are next.
 

  Range separation radius for Ewald summation (hartree_convergence_parameter):      2.67272373 bohr.
  Number of empty states per atom not set in control.in - providing a guess from actual geometry.
  | Total number of empty states used during s.c.f. cycle:       18
  If you use a very high smearing, use empty_states (per atom!) in control.in to increase this value.

  Structure-dependent array size parameters: 
  | Maximum number of distinct radial functions  :        8
  | Maximum number of basis functions            :       38
  | Number of Kohn-Sham states (occupied + empty):       48
------------------------------------------------------------

************************** W A R N I N G *******************************
* You are using the PIMD wrapper. Specifications and positions         *
* in geometry.in will be IGNORED - all is received from the wrapper.   *
* Please make sure species are declared in the same order in           *
* geometry.in and wrapper input.                                       *
************************************************************************


------------------------------------------------------------
          Preparing all fixed parts of the calculation.
------------------------------------------------------------
  Determining machine precision:
    2.225073858507201E-308
  Setting up grids for atomic and cluster calculations.

  Creating wave function, potential, and density for free atoms.
  Runtime choices for atomic solver:
  | atomic solver xc        : PBE
  | compute density gradient: 1
  | compute kinetic density : F

  Species: O

  List of occupied orbitals and eigenvalues:
    n    l              occ      energy [Ha]    energy [eV]
    1    0           2.0000       -18.926989      -515.0296
    2    0           2.0000        -0.880247       -23.9527
    2    1           4.0000        -0.331514        -9.0210


  Species: Si

  List of occupied orbitals and eigenvalues:
    n    l              occ      energy [Ha]    energy [eV]
    1    0           2.0000       -65.767597     -1789.6274
    2    0           2.0000        -5.115610      -139.2028
    3    0           2.0000        -0.388877       -10.5819
    2    1           6.0000        -3.500197       -95.2452
    3    1           2.0000        -0.140803        -3.8315


  Adding cutoff potential to free-atom effective potential.
  Creating fixed part of basis set: Ionic, confined, hydrogenic.
  Creating atomic-like basis functions for current effective potential.

  Species O                   :

  List of atomic basis orbitals and eigenvalues:
    n    l      energy [Ha]    energy [eV]    outer radius [A]
    1    0       -18.926989      -515.0296       1.415765
    2    0        -0.880247       -23.9527       4.413171
    2    1        -0.331514        -9.0210       4.522403


  Species Si                  :

  List of atomic basis orbitals and eigenvalues:
    n    l      energy [Ha]    energy [eV]    outer radius [A]
    1    0       -65.767597     -1789.6274       0.789468
    2    0        -5.115610      -139.2028       2.815114
    3    0        -0.388877       -10.5819       4.534782
    2    1        -3.500197       -95.2452       3.259919
    3    1        -0.140803        -3.8315       4.590560

  Assembling full basis from fixed parts.
  | Species O :   atomic orbital   1 s accepted.
  | Species O :   atomic orbital   2 s accepted.
  | Species O :   atomic orbital   2 p accepted.
  | Species Si :   atomic orbital   1 s accepted.
  | Species Si :   atomic orbital   2 s accepted.
  | Species Si :   atomic orbital   3 s accepted.
  | Species Si :   atomic orbital   2 p accepted.
  | Species Si :   atomic orbital   3 p accepted.
  Reducing total number of  Kohn-Sham states to       38.
 
  Basis size parameters after reduction:
  | Total number of radial functions:        8
  | Total number of basis functions :       38
 
  Per-task memory consumption for arrays in subroutine allocate_ext:
  |           2.758104MB.
  Testing on-site integration grid accuracy.
  |  Species  Function  <phi|h_atom|phi> (log., in eV)  <phi|h_atom|phi> (rad., in eV)
           1        1               -515.0295626295               -515.0294562738
           1        2                -23.9527496044                -23.9527504259
           1        3                 -9.0211123393                 -9.0212703513
           2        4              -1789.6273740966              -1789.6266345813
           2        5               -139.2028173376               -139.2028132357
           2        6                -10.5827646566                -10.5840329934
           2        7                -95.2452114632                -95.2452114537
           2        8                 -3.8413965043                 -3.8571292824

  Preparing densities etc. for the partition functions (integrals / Hartree potential).

  Preparations completed.
  max(cpu_time)          :      0.145 s.
  Wall clock time (cpu1) :      0.145 s.
------------------------------------------------------------

  Initializing index lists of integration centers etc. from given atomic structure:
  Mapping all atomic coordinates to central unit cell.

  Initializing the k-points
  Using symmetry for reducing the k-points
  | k-points reduced from:       80 to       42
  | Number of k-points                             :        42
  The eigenvectors in the calculations are COMPLEX.
  | K-points in task   0:         1
  | K-points in task   1:         2
  | K-points in task   2:         2
  | K-points in task   3:         1
  | K-points in task   4:         1
  | K-points in task   5:         1
  | K-points in task   6:         1
  | K-points in task   7:         1
  | K-points in task   8:         1
  | K-points in task   9:         1
  | K-points in task  10:         1
  | K-points in task  11:         1
  | K-points in task  12:         1
  | K-points in task  13:         1
  | K-points in task  14:         1
  | K-points in task  15:         1
  | K-points in task  16:         1
  | K-points in task  17:         1
  | K-points in task  18:         1
  | K-points in task  19:         1
  | K-points in task  20:         1
  | K-points in task  21:         1
  | K-points in task  22:         1
  | K-points in task  23:         1
  | K-points in task  24:         1
  | K-points in task  25:         1
  | K-points in task  26:         1
  | K-points in task  27:         1
  | K-points in task  28:         1
  | K-points in task  29:         1
  | K-points in task  30:         1
  | K-points in task  31:         1
  | K-points in task  32:         1
  | K-points in task  33:         1
  | K-points in task  34:         1
  | K-points in task  35:         1
  | K-points in task  36:         1
  | K-points in task  37:         1
  | K-points in task  38:         1
  | K-points in task  39:         1
  | Number of basis functions in the Hamiltonian integrals :      1019
  | Number of basis functions in a single unit cell        :        38
  | Number of centers in hartree potential         :      1328
  | Number of centers in hartree multipole         :       997
  | Number of centers in electron density summation:       693
  | Number of centers in basis integrals           :       729
  | Number of centers in integrals                 :       251
  | Number of centers in hamiltonian               :       693
  | Consuming        102 KiB for k_phase.
  | Number of super-cells (origin) [n_cells]                     :        1053
  | Number of super-cells (after PM_index) [n_cells]             :         156
  | Number of super-cells in hamiltonian [n_cells_in_hamiltonian]:         156
  | Size of matrix packed + index [n_hamiltonian_matrix_size] :       36581
* Skipping the SCF initialization for now - done inside wrapper      *
  @ DRIVER MODE: Connecting to host:port localhost       12346
  @ DRIVER MODE: Message from server: STATUS      
  @ DRIVER MODE: Message from server: POSDATA     
  @ DRIVER MODE: Received positions 

  Initializing index lists of integration centers etc. from given atomic structure:
  Mapping all atomic coordinates to central unit cell.

  Initializing the k-points
  Using symmetry for reducing the k-points
  | k-points reduced from:       80 to       42
  | Number of k-points                             :        42
  The eigenvectors in the calculations are COMPLEX.
  | K-points in task   0:         1
  | K-points in task   1:         2
  | K-points in task   2:         2
  | K-points in task   3:         1
  | K-points in task   4:         1
  | K-points in task   5:         1
  | K-points in task   6:         1
  | K-points in task   7:         1
  | K-points in task   8:         1
  | K-points in task   9:         1
  | K-points in task  10:         1
  | K-points in task  11:         1
  | K-points in task  12:         1
  | K-points in task  13:         1
  | K-points in task  14:         1
  | K-points in task  15:         1
  | K-points in task  16:         1
  | K-points in task  17:         1
  | K-points in task  18:         1
  | K-points in task  19:         1
  | K-points in task  20:         1
  | K-points in task  21:         1
  | K-points in task  22:         1
  | K-points in task  23:         1
  | K-points in task  24:         1
  | K-points in task  25:         1
  | K-points in task  26:         1
  | K-points in task  27:         1
  | K-points in task  28:         1
  | K-points in task  29:         1
  | K-points in task  30:         1
  | K-points in task  31:         1
  | K-points in task  32:         1
  | K-points in task  33:         1
  | K-points in task  34:         1
  | K-points in task  35:         1
  | K-points in task  36:         1
  | K-points in task  37:         1
  | K-points in task  38:         1
  | K-points in task  39:         1
  | Number of basis functions in the Hamiltonian integrals :      1019
  | Number of basis functions in a single unit cell        :        38
  | Number of centers in hartree potential         :      1328
  | Number of centers in hartree multipole         :       997
  | Number of centers in electron density summation:       693
  | Number of centers in basis integrals           :       729
  | Number of centers in integrals                 :       251
  | Number of centers in hamiltonian               :       693
  | Consuming        102 KiB for k_phase.
  | Number of super-cells (origin) [n_cells]                     :        1053
  | Number of super-cells (after PM_index) [n_cells]             :         156
  | Number of super-cells in hamiltonian [n_cells_in_hamiltonian]:         156
  | Size of matrix packed + index [n_hamiltonian_matrix_size] :       36581

------------------------------------------------------------
          Begin self-consistency loop: Initialization.

          Date     :  20240327, Time     :  165756.967
------------------------------------------------------------
  | Estimated reciprocal-space cutoff momentum G_max:         3.55519305 bohr^-1 .
  | Reciprocal lattice points for long-range Hartree potential:     248
  Partitioning the integration grid into batches with parallel hashing+maxmin method.
  | Number of batches:      503
  | Maximal batch size:     116
  | Minimal batch size:      50
  | Average batch size:      73.527
  | Standard deviation of batch sizes:      16.797

  Integration load balanced across    40 MPI tasks.
  Work distribution over tasks is as follows:
  Task     0 has        927 integration points.
  Task     1 has        919 integration points.
  Task     2 has        947 integration points.
  Task     3 has        950 integration points.
  Task     4 has        936 integration points.
  Task     5 has        947 integration points.
  Task     6 has        930 integration points.
  Task     7 has        918 integration points.
  Task     8 has        912 integration points.
  Task     9 has        913 integration points.
  Task    10 has        907 integration points.
  Task    11 has        909 integration points.
  Task    12 has        913 integration points.
  Task    13 has        943 integration points.
  Task    14 has        897 integration points.
  Task    15 has        937 integration points.
  Task    16 has        927 integration points.
  Task    17 has        952 integration points.
  Task    18 has        911 integration points.
  Task    19 has        907 integration points.
  Task    20 has        904 integration points.
  Task    21 has        896 integration points.
  Task    22 has        909 integration points.
  Task    23 has        908 integration points.
  Task    24 has        945 integration points.
  Task    25 has        897 integration points.
  Task    26 has        912 integration points.
  Task    27 has        921 integration points.
  Task    28 has        936 integration points.
  Task    29 has        910 integration points.
  Task    30 has        909 integration points.
  Task    31 has        911 integration points.
  Task    32 has        945 integration points.
  Task    33 has        940 integration points.
  Task    34 has        908 integration points.
  Task    35 has        957 integration points.
  Task    36 has        943 integration points.
  Task    37 has        937 integration points.
  Task    38 has        943 integration points.
  Task    39 has        951 integration points.
  Initializing partition tables, free-atom densities, potentials, etc. across the integration grid (initialize_grid_storage).
  | initialize_grid_storage: Actual outermost partition radius vs. multipole_radius_free
  | (-- VB: in principle, multipole_radius_free should be larger, hence this output)
  | Species        1: Confinement radius =              4.999999999999999 AA, multipole_radius_free =              5.048384829883283 AA.
  | Species        1: outer_partition_radius set to              5.048384829883283 AA .
  | Species        2: Confinement radius =              4.999999999999999 AA, multipole_radius_free =              5.000694715736543 AA.
  | Species        2: outer_partition_radius set to              5.000694715736543 AA .
  | The sparse table of interatomic distances needs       2490.38 kbyte instead of      4251.53 kbyte of memory.
  | Net number of integration points:    36984
  | of which are non-zero points    :    28928
  | Numerical average free-atom electrostatic potential    :    -19.85821636 eV
  Renormalizing the initial density to the exact electron count on the 3D integration grid.
  | Initial density: Formal number of electrons (from input files) :      60.0000000000
  | Integrated number of electrons on 3D grid     :      60.0015951053
  | Charge integration error                      :       0.0015951053
  | Normalization factor for density and gradient :       0.9999734156
  Obtaining max. number of non-zero basis functions in each batch (get_n_compute_maxes).
  | Maximal number of non-zero basis functions:      326 in task     0
  | Maximal number of non-zero basis functions:      326 in task     1
  | Maximal number of non-zero basis functions:      317 in task     2
  | Maximal number of non-zero basis functions:      314 in task     3
  | Maximal number of non-zero basis functions:      323 in task     4
  | Maximal number of non-zero basis functions:      312 in task     5
  | Maximal number of non-zero basis functions:      332 in task     6
  | Maximal number of non-zero basis functions:      320 in task     7
  | Maximal number of non-zero basis functions:      325 in task     8
  | Maximal number of non-zero basis functions:      321 in task     9
  | Maximal number of non-zero basis functions:      324 in task    10
  | Maximal number of non-zero basis functions:      326 in task    11
  | Maximal number of non-zero basis functions:      324 in task    12
  | Maximal number of non-zero basis functions:      324 in task    13
  | Maximal number of non-zero basis functions:      332 in task    14
  | Maximal number of non-zero basis functions:      325 in task    15
  | Maximal number of non-zero basis functions:      325 in task    16
  | Maximal number of non-zero basis functions:      328 in task    17
  | Maximal number of non-zero basis functions:      327 in task    18
  | Maximal number of non-zero basis functions:      315 in task    19
  | Maximal number of non-zero basis functions:      321 in task    20
  | Maximal number of non-zero basis functions:      326 in task    21
  | Maximal number of non-zero basis functions:      324 in task    22
  | Maximal number of non-zero basis functions:      320 in task    23
  | Maximal number of non-zero basis functions:      327 in task    24
  | Maximal number of non-zero basis functions:      325 in task    25
  | Maximal number of non-zero basis functions:      328 in task    26
  | Maximal number of non-zero basis functions:      316 in task    27
  | Maximal number of non-zero basis functions:      322 in task    28
  | Maximal number of non-zero basis functions:      329 in task    29
  | Maximal number of non-zero basis functions:      318 in task    30
  | Maximal number of non-zero basis functions:      314 in task    31
  | Maximal number of non-zero basis functions:      322 in task    32
  | Maximal number of non-zero basis functions:      320 in task    33
  | Maximal number of non-zero basis functions:      316 in task    34
  | Maximal number of non-zero basis functions:      326 in task    35
  | Maximal number of non-zero basis functions:      323 in task    36
  | Maximal number of non-zero basis functions:      322 in task    37
  | Maximal number of non-zero basis functions:      317 in task    38
  | Maximal number of non-zero basis functions:      331 in task    39
  Allocating        0.022 MB for KS_eigenvector_complex
  Integrating Hamiltonian matrix: batch-based integration.
  Time summed over all CPUs for integration: real work        1.257 s, elapsed        1.316 s
  Integrating overlap matrix.
  Time summed over all CPUs for integration: real work        0.813 s, elapsed        0.853 s
  Decreasing sparse matrix size:
  | Tolerance:  0.1000E-12
  Hamiltonian matrix
  | Array has    29692 nonzero elements out of    36581 elements
  | Sparsity factor is 0.188
  Overlap matrix
  | Array has    27284 nonzero elements out of    36581 elements
  | Sparsity factor is 0.254
  New size of hamiltonian matrix:       29761

  Updating Kohn-Sham eigenvalues and eigenvectors using ELSI and the (modified) LAPACK eigensolver.

  Obtaining occupation numbers and electronic chemical potential using ELSI.
  | Note that, for insulating systems, the printed 'chemical potential' value is not uniquely defined.
  | It can be anywhere in the energy gap, as long as it correctly separates occupied and unoccupied states.
  | In systems with a gap, the physically relevant chemical potential is the VBM or HOMO.

  | Chemical potential (Fermi level):    -5.59169510 eV
  Writing Kohn-Sham eigenvalues.
  K-point:       1 at    0.000000    0.000000    0.000000 (in units of recip. lattice)

  State    Occupation    Eigenvalue [Ha]    Eigenvalue [eV]
      1       2.00000         -65.790296        -1790.24504
      2       2.00000         -65.790296        -1790.24504
      3       2.00000         -19.041310         -518.14042
      4       2.00000         -19.041310         -518.14042
      5       2.00000         -19.041310         -518.14042
      6       2.00000         -19.041310         -518.14042
      7       2.00000          -5.146195         -140.03510
      8       2.00000          -5.146192         -140.03502
      9       2.00000          -3.532223          -96.11667
     10       2.00000          -3.532220          -96.11661
     11       2.00000          -3.530091          -96.05867
     12       2.00000          -3.530091          -96.05867
     13       2.00000          -3.529716          -96.04846
     14       2.00000          -3.529716          -96.04846
     15       2.00000          -1.185447          -32.25767
     16       2.00000          -1.071058          -29.14497
     17       2.00000          -1.071058          -29.14497
     18       2.00000          -1.060278          -28.85163
     19       2.00000          -0.737638          -20.07216
     20       2.00000          -0.592367          -16.11912
     21       2.00000          -0.592367          -16.11912
     22       2.00000          -0.580440          -15.79457
     23       2.00000          -0.561951          -15.29147
     24       2.00000          -0.533094          -14.50622
     25       2.00000          -0.477231          -12.98613
     26       2.00000          -0.477231          -12.98613
     27       2.00000          -0.471147          -12.82056
     28       2.00000          -0.422196          -11.48854
     29       2.00000          -0.422196          -11.48854
     30       2.00000          -0.396673          -10.79403
     31       0.00000          -0.118435           -3.22278
     32       0.00000           0.047939            1.30448
     33       0.00000           0.047939            1.30448
     34       0.00000           0.076476            2.08101
     35       0.00000           0.169369            4.60877
     36       0.00000           0.216797            5.89936
     37       0.00000           0.216797            5.89936
     38       0.00000           0.359247            9.77561

  What follows are estimated values for band gap, HOMO, LUMO, etc.
  | They are estimated on a discrete k-point grid and not necessarily exact.
  | For converged numbers, create a DOS and/or band structure plot on a denser k-grid.

  Highest occupied state (VBM) at    -10.79403339 eV (relative to internal zero)
  | Occupation number:      2.00000000
  | K-point:       1 at    0.000000    0.000000    0.000000 (in units of recip. lattice)

  Lowest unoccupied state (CBM) at    -3.22278069 eV (relative to internal zero)
  | Occupation number:      0.00000000
  | K-point:       1 at    0.000000    0.000000    0.000000 (in units of recip. lattice)

  ESTIMATED overall HOMO-LUMO gap:      7.57125270 eV between HOMO at k-point 1 and LUMO at k-point 1
  | This appears to be a direct band gap.
  The gap value is above 0.2 eV. Unless you are using a very sparse k-point grid,
  this system is most likely an insulator or a semiconductor.
  Calculating total energy contributions from superposition of free atom densities.

  Total energy components:
  | Sum of eigenvalues            :        -500.07121454 Ha      -13607.63009625 eV
  | XC energy correction          :         -76.03150446 Ha       -2068.92250202 eV
  | XC potential correction       :          98.05906135 Ha        2668.32282207 eV
  | Free-atom electrostatic energy:        -404.00385858 Ha      -10993.50433523 eV
  | Hartree energy correction     :           0.00000000 Ha           0.00000000 eV
  | Entropy correction            :          -0.00000000 Ha          -0.00000000 eV
  | ---------------------------
  | Total energy                  :        -882.04751623 Ha      -24001.73411144 eV
  | Total energy, T -> 0          :        -882.04751623 Ha      -24001.73411144 eV  <-- do not rely on this value for anything but (periodic) metals
  | Electronic free energy        :        -882.04751623 Ha      -24001.73411144 eV

  Derived energy quantities:
  | Kinetic energy                :         883.80285060 Ha       24049.49918995 eV
  | Electrostatic energy          :       -1689.81886237 Ha      -45982.31079937 eV
  | Energy correction for multipole
  | error in Hartree potential    :           0.00000000 Ha           0.00000000 eV
  | Sum of eigenvalues per atom                           :       -2267.93834938 eV
  | Total energy (T->0) per atom                          :       -4000.28901857 eV  <-- do not rely on this value for anything but (periodic) metals
  | Electronic free energy per atom                       :       -4000.28901857 eV
  Initialize hartree_potential_storage
  Max. number of atoms included in rho_multipole:            6

  End scf initialization - timings             :  max(cpu_time)    wall_clock(cpu1)
  | Time for scf. initialization                :        0.234 s           0.234 s
  | Boundary condition initialization           :        0.067 s           0.067 s
  | Integration                                 :        0.057 s           0.057 s
  | Solution of K.-S. eqns.                     :        0.004 s           0.004 s
  | Grid partitioning                           :        0.016 s           0.016 s
  | Preloading free-atom quantities on grid     :        0.142 s           0.144 s
  | Free-atom superposition energy              :        0.012 s           0.012 s
  | Total energy evaluation                     :        0.000 s           0.000 s

  Partial memory accounting:
  | Current value for overall tracked memory usage:
  |   Minimum:        0.590 MB (on task  0)
  |   Maximum:        0.612 MB (on task  1)
  |   Average:        0.591 MB
  | Peak value for overall tracked memory usage:
  |   Minimum:        2.523 MB (on task  0 after allocating min_atom_atom_tab)
  |   Maximum:        2.523 MB (on task  0 after allocating min_atom_atom_tab)
  |   Average:        2.523 MB
  | Largest tracked array allocation so far:
  |   Minimum:        1.581 MB (atom_atom_dist_list on task  0)
  |   Maximum:        1.581 MB (atom_atom_dist_list on task  0)
  |   Average:        1.581 MB
  Note:  These values currently only include a subset of arrays which are explicitly tracked.
  The "true" memory usage will be greater.
------------------------------------------------------------
  Time for density update prior                :  max(cpu_time)    wall_clock(cpu1)
  | self-consistency iterative process          :        0.046 s           0.046 s
------------------------------------------------------------
Convergence:    q app. |  density  | eigen (eV) | Etot (eV) | forces (eV/A) |       CPU time |     Clock time
  SCF    1 :  0.19E-02 |  0.71E+00 |   0.11E+01 |  0.29E+00 |             . |        0.216 s |        0.217 s
  SCF    2 :  0.26E-01 |  0.70E+00 |   0.10E+03 |  0.11E+02 |             . |        0.219 s |        0.218 s
  SCF    3 :  0.23E-01 |  0.14E+00 |  -0.96E+01 | -0.15E+00 |             . |        0.216 s |        0.213 s
  SCF    4 :  0.24E-01 |  0.14E+00 |   0.13E+01 |  0.17E+00 |             . |        0.217 s |        0.214 s
  SCF    5 :  0.24E-01 |  0.29E-01 |   0.26E+01 |  0.16E-01 |             . |        0.227 s |        0.228 s
  SCF    6 :  0.34E-02 |  0.13E-01 |  -0.40E+01 |  0.70E-02 |             . |        0.224 s |        0.222 s
  SCF    7 :  0.46E-02 |  0.40E-02 |   0.54E+00 |  0.15E-03 |             . |        0.216 s |        0.215 s
  SCF    8 :  0.15E-02 |  0.15E-02 |  -0.16E-01 | -0.23E-04 |             . |        0.216 s |        0.214 s
  SCF    9 :  0.15E-02 |  0.26E-03 |   0.18E-02 | -0.10E-05 |             . |        0.216 s |        0.215 s
  SCF   10 :  0.16E-02 |  0.21E-03 |  -0.26E-02 | -0.31E-05 |             . |        0.223 s |        0.221 s
  SCF   11 :  0.16E-02 |  0.18E-04 |  -0.29E-03 | -0.47E-07 |             . |        0.219 s |        0.218 s
  SCF   12 :  0.16E-02 |  0.12E-04 |   0.48E-02 | -0.27E-06 |             . |        0.217 s |        0.214 s
  SCF   13 :  0.16E-02 |  0.14E-05 |  -0.22E-03 |  0.37E-07 |             . |        0.217 s |        0.215 s
  SCF   14 :  0.16E-02 |  0.91E-06 |   0.90E-04 | -0.11E-07 |             . |        0.218 s |        0.219 s
  SCF   15 :  0.16E-02 |  0.35E-07 |  -0.13E-04 |  0.15E-08 |      0.18E+02 |        0.551 s |        0.551 s
  SCF   16 :  0.16E-02 |  0.77E-08 |   0.48E-06 | -0.24E-09 |      0.82E-06 |        1.296 s |        1.296 s

  Total energy components:
  | Sum of eigenvalues            :        -496.63346608 Ha      -13514.08420104 eV
  | XC energy correction          :         -76.86267572 Ha       -2091.53982272 eV
  | XC potential correction       :          99.13214107 Ha        2697.52280691 eV
  | Free-atom electrostatic energy:        -404.00385858 Ha      -10993.50433523 eV
  | Hartree energy correction     :          -3.26667895 Ha         -88.89085684 eV
  | Entropy correction            :          -0.00000000 Ha          -0.00000000 eV
  | ---------------------------
  | Total energy                  :        -881.63453825 Ha      -23990.49640893 eV
  | Total energy, T -> 0          :        -881.63453825 Ha      -23990.49640893 eV  <-- do not rely on this value for anything but (periodic) metals
  | Electronic free energy        :        -881.63453825 Ha      -23990.49640893 eV

  Derived energy quantities:
  | Kinetic energy                :         887.50735524 Ha       24150.30389015 eV
  | Electrostatic energy          :       -1692.27921778 Ha      -46049.26047636 eV
  | Energy correction for multipole
  | error in Hartree potential    :           0.01794752 Ha           0.48837680 eV
  | Sum of eigenvalues per atom                           :       -2252.34736684 eV
  | Total energy (T->0) per atom                          :       -3998.41606815 eV  <-- do not rely on this value for anything but (periodic) metals
  | Electronic free energy per atom                       :       -3998.41606815 eV
  What follows are estimated values for band gap, HOMO, LUMO, etc.
  | They are estimated on a discrete k-point grid and not necessarily exact.
  | For converged numbers, create a DOS and/or band structure plot on a denser k-grid.

  Highest occupied state (VBM) at     -5.95736148 eV (relative to internal zero)
  | Occupation number:      2.00000000
  | K-point:       1 at    0.000000    0.000000    0.000000 (in units of recip. lattice)

  Lowest unoccupied state (CBM) at    -1.63340078 eV (relative to internal zero)
  | Occupation number:      0.00000000
  | K-point:       1 at    0.000000    0.000000    0.000000 (in units of recip. lattice)

  ESTIMATED overall HOMO-LUMO gap:      4.32396071 eV between HOMO at k-point 1 and LUMO at k-point 1
  | This appears to be a direct band gap.
  The gap value is above 0.2 eV. Unless you are using a very sparse k-point grid,
  this system is most likely an insulator or a semiconductor.

  | Chemical Potential                          :    -3.78640541 eV
  | Note that, for insulating systems, the printed 'chemical potential' value is not uniquely defined.
  | It can be anywhere in the energy gap, as long as it correctly separates occupied and unoccupied states.
  | In systems with a gap, the physically relevant chemical potential is the VBM or HOMO.

  Self-consistency cycle converged.

  +-------------------------------------------------------------------+
  |              Analytical stress tensor - Symmetrized               |
  |                  Cartesian components [eV/A**3]                   |
  +-------------------------------------------------------------------+
  |                x                y                z                |
  |                                                                   |
  |  x        -0.30250996       0.00000000      -0.00000000           |
  |  y         0.00000000      -0.30251043       0.00000000           |
  |  z        -0.00000000       0.00000000      -0.56660736           |
  |                                                                   |
  |  Pressure:       0.39054259   [eV/A**3]                           |
  |                                                                   |
  +-------------------------------------------------------------------+
  Removing unitary transformations (pure translations, rotations) from forces on atoms.
  Atomic forces before filtering:
  | Net force on center of mass :  -0.366022E-08 -0.517245E-08 -0.515567E-08 eV/A
  Atomic forces after filtering:
  | Net force on center of mass :  -0.954695E-16  0.437714E-15  0.664615E-24 eV/A

  Energy and forces in a compact form:
  | Total energy uncorrected      :         -0.239904964089263E+05 eV
  | Total energy corrected        :         -0.239904964089263E+05 eV  <-- do not rely on this value for anything but (periodic) metals
  | Electronic free energy        :         -0.239904964089264E+05 eV
  Total atomic forces (unitary forces cleaned) [eV/Ang]:
  |    1         -0.925310857783354E+00         -0.925302606772528E+00          0.106185479089482E-08
  |    2          0.925310858981128E+00          0.925302608017032E+00          0.993766255616016E-09
  |    3          0.925310858930422E+00         -0.925302606227869E+00          0.668101883099445E-09
  |    4         -0.925310857683770E+00          0.925302608628711E+00          0.665543209695665E-09
  |    5         -0.768599282990667E-09         -0.227817305927492E-09         -0.284753854214670E-09
  |    6         -0.167582697000883E-08         -0.341752818652087E-08         -0.310451228509128E-08

  Removing unitary transformations (pure translations, rotations) from forces on atoms.
  Atomic forces before filtering:
  | Net force on center of mass :  -0.954695E-16  0.437714E-15  0.664615E-24 eV/A
  Atomic forces after filtering:
  | Net force on center of mass :  -0.590525E-16  0.292046E-15  0.000000E+00 eV/A
 ------------------------------------------------------------------------
 Atomic structure that was used in the preceding time step of the wrapper
                         x [A]             y [A]             z [A]
  lattice_vector         4.18090000        0.00000000        0.00000000
  lattice_vector         0.00000000        4.18090000        0.00000000
  lattice_vector         0.00000000        0.00000000        2.66200000

            atom         1.28242861        1.28242861        0.00000000  O
            atom         2.89847138        2.89847138        0.00000000  O
            atom         0.80802139        3.37287861        1.33100000  O
            atom         3.37287861        0.80802139        1.33100000  O
            atom        -0.00000000       -0.00000000        0.00000000  Si
            atom         2.09045000        2.09045000        1.33100000  Si
 ------------------------------------------------------------------------
  @ DRIVER MODE: Message from server: STATUS      
  @ DRIVER MODE: Message from server: GETFORCE    
  @ DRIVER MODE: Returning v,forces,stress 
  @ DRIVER MODE: Message from server: STATUS      
  @ DRIVER MODE: Message from server: INIT        
  @ DRIVER MODE: Receiving replica           0
  @ DRIVER MODE: Message from server: STATUS      
  @ DRIVER MODE: Message from server: POSDATA     
  @ DRIVER MODE: Received positions 

------------------------------------------------------------
          Begin self-consistency loop: Re-initialization.

  Date     :  20240327, Time     :  165802.508
------------------------------------------------------------

  Initializing index lists of integration centers etc. from given atomic structure:
  Mapping all atomic coordinates to central unit cell.

  Initializing the k-points
  Using symmetry for reducing the k-points
  | k-points reduced from:       80 to       42
  | Number of k-points                             :        42
  The eigenvectors in the calculations are COMPLEX.
  | K-points in task   0:         1
  | K-points in task   1:         2
  | K-points in task   2:         2
  | K-points in task   3:         1
  | K-points in task   4:         1
  | K-points in task   5:         1
  | K-points in task   6:         1
  | K-points in task   7:         1
  | K-points in task   8:         1
  | K-points in task   9:         1
  | K-points in task  10:         1
  | K-points in task  11:         1
  | K-points in task  12:         1
  | K-points in task  13:         1
  | K-points in task  14:         1
  | K-points in task  15:         1
  | K-points in task  16:         1
  | K-points in task  17:         1
  | K-points in task  18:         1
  | K-points in task  19:         1
  | K-points in task  20:         1
  | K-points in task  21:         1
  | K-points in task  22:         1
  | K-points in task  23:         1
  | K-points in task  24:         1
  | K-points in task  25:         1
  | K-points in task  26:         1
  | K-points in task  27:         1
  | K-points in task  28:         1
  | K-points in task  29:         1
  | K-points in task  30:         1
  | K-points in task  31:         1
  | K-points in task  32:         1
  | K-points in task  33:         1
  | K-points in task  34:         1
  | K-points in task  35:         1
  | K-points in task  36:         1
  | K-points in task  37:         1
  | K-points in task  38:         1
  | K-points in task  39:         1
  | Number of basis functions in the Hamiltonian integrals :       853
  | Number of basis functions in a single unit cell        :        38
  | Number of centers in hartree potential         :       923
  | Number of centers in hartree multipole         :       676
  | Number of centers in electron density summation:       480
  | Number of centers in basis integrals           :       510
  | Number of centers in integrals                 :       193
  | Number of centers in hamiltonian               :       480
  | Consuming         77 KiB for k_phase.
  | Number of super-cells (origin) [n_cells]                     :         891
  | Number of super-cells (after PM_index) [n_cells]             :         118
  | Number of super-cells in hamiltonian [n_cells_in_hamiltonian]:         118
  | Size of matrix packed + index [n_hamiltonian_matrix_size] :       23873
  Partitioning the integration grid into batches with parallel hashing+maxmin method.
  Initializing partition tables, free-atom densities, potentials, etc. across the integration grid (initialize_grid_storage).
  | Species        1: outer_partition_radius set to              5.048384829883283 AA .
  | Species        2: outer_partition_radius set to              5.000694715736543 AA .
  | Net number of integration points:    36984
  | of which are non-zero points    :    30664
  Renormalizing the initial density to the exact electron count on the 3D integration grid.
  | Initial density: Formal number of electrons (from input files) :      60.0000000000
  | Integrated number of electrons on 3D grid     :      59.9993866540
  | Charge integration error                      :      -0.0006133460
  | Normalization factor for density and gradient :       1.0000102225
  Calculating total energy contributions from superposition of free atom densities.
  Initialize hartree_potential_storage
  Max. number of atoms included in rho_multipole:            6
  Integrating overlap matrix.
  Time summed over all CPUs for integration: real work        0.453 s, elapsed        0.518 s
  Orthonormalizing eigenvectors

  End scf reinitialization - timings           :  max(cpu_time)    wall_clock(cpu1)
  | Time for scf. reinitialization              :        0.169 s           0.170 s
  | Boundary condition initialization           :        0.062 s           0.062 s
  | Integration                                 :        0.014 s           0.013 s
  | Grid partitioning                           :        0.015 s           0.015 s
  | Preloading free-atom quantities on grid     :        0.070 s           0.071 s
  | Free-atom superposition energy              :        0.008 s           0.007 s
  | K.-S. eigenvector reorthonormalization      :        0.000 s           0.001 s
------------------------------------------------------------
  Time for density update prior                :  max(cpu_time)    wall_clock(cpu1)
  | self-consistency iterative process          :        0.027 s           0.027 s
------------------------------------------------------------
Convergence:    q app. |  density  | eigen (eV) | Etot (eV) | forces (eV/A) |       CPU time |     Clock time
  SCF    1 : -0.62E-03 |  0.37E+00 |  -0.13E+05 | -0.24E+05 |             . |        0.123 s |        0.123 s
  SCF    2 : -0.67E-03 |  0.93E-01 |  -0.30E-01 |  0.33E-02 |             . |        0.174 s |        0.172 s
  SCF    3 : -0.37E-02 |  0.92E-01 |  -0.19E+01 |  0.10E+00 |             . |        0.151 s |        0.150 s
  SCF    4 :  0.14E-02 |  0.25E-01 |   0.36E+01 |  0.28E-02 |             . |        0.149 s |        0.147 s
  SCF    5 :  0.56E-02 |  0.12E-01 |   0.29E+01 |  0.10E-02 |             . |        0.148 s |        0.146 s
  SCF    6 :  0.60E-02 |  0.32E-02 |   0.22E+01 |  0.33E-03 |             . |        0.148 s |        0.147 s
  SCF    7 :  0.61E-02 |  0.65E-03 |   0.68E-01 | -0.37E-05 |             . |        0.154 s |        0.152 s
  SCF    8 : -0.17E-03 |  0.69E-03 |   0.33E-01 | -0.19E-04 |             . |        0.152 s |        0.149 s
  SCF    9 : -0.90E-04 |  0.71E-04 |   0.26E-02 |  0.86E-07 |             . |        0.150 s |        0.148 s
  SCF   10 : -0.60E-03 |  0.70E-04 |  -0.25E-02 |  0.50E-05 |             . |        0.149 s |        0.147 s
  SCF   11 : -0.61E-03 |  0.63E-05 |  -0.43E-03 |  0.90E-07 |             . |        0.149 s |        0.148 s
  SCF   12 : -0.62E-03 |  0.52E-05 |  -0.14E-02 |  0.10E-06 |             . |        0.148 s |        0.146 s
  SCF   13 : -0.62E-03 |  0.83E-06 |  -0.18E-03 | -0.20E-08 |             . |        0.148 s |        0.146 s
  SCF   14 : -0.62E-03 |  0.43E-07 |  -0.25E-04 |  0.28E-08 |      0.14E+01 |        0.386 s |        0.388 s
  SCF   15 : -0.62E-03 |  0.12E-06 |   0.23E-04 | -0.33E-08 |      0.28E-05 |        0.764 s |        0.766 s

  Total energy components:
  | Sum of eigenvalues            :        -494.93363355 Ha      -13467.82940442 eV
  | XC energy correction          :         -75.82155957 Ha       -2063.20961096 eV
  | XC potential correction       :          97.73659000 Ha        2659.54793018 eV
  | Free-atom electrostatic energy:        -407.80888167 Ha      -11097.04428164 eV
  | Hartree energy correction     :          -0.82505185 Ha         -22.45080319 eV
  | Entropy correction            :          -0.00016525 Ha          -0.00449666 eV
  | ---------------------------
  | Total energy                  :        -881.65253664 Ha      -23990.98617003 eV
  | Total energy, T -> 0          :        -881.65270189 Ha      -23990.99066669 eV  <-- do not rely on this value for anything but (periodic) metals
  | Electronic free energy        :        -881.65286714 Ha      -23990.99516335 eV

  Derived energy quantities:
  | Kinetic energy                :         882.97256077 Ha       24026.90585404 eV
  | Electrostatic energy          :       -1688.80353784 Ha      -45954.68241311 eV
  | Energy correction for multipole
  | error in Hartree potential    :           0.00394661 Ha           0.10739273 eV
  | Sum of eigenvalues per atom                           :       -2244.63823407 eV
  | Total energy (T->0) per atom                          :       -3998.49844445 eV  <-- do not rely on this value for anything but (periodic) metals
  | Electronic free energy per atom                       :       -3998.49919389 eV
  What follows are estimated values for band gap, HOMO, LUMO, etc.
  | They are estimated on a discrete k-point grid and not necessarily exact.
  | For converged numbers, create a DOS and/or band structure plot on a denser k-grid.

  Highest occupied state (VBM) at     -5.92183941 eV (relative to internal zero)
  | Occupation number:      1.05613000
  | K-point:       1 at    0.000000    0.000000    0.000000 (in units of recip. lattice)

  Lowest unoccupied state (CBM) at    -5.32560602 eV (relative to internal zero)
  | Occupation number:      0.00574351
  | K-point:       4 at    0.000000    0.250000    0.000000 (in units of recip. lattice)

  ESTIMATED overall HOMO-LUMO gap:      0.59623339 eV between HOMO at k-point 1 and LUMO at k-point 4
  | This appears to be an indirect band gap.
  | Smallest direct gap :      0.92919735 eV for k_point 12 at    0.250000    0.000000    0.000000 (in units of recip. lattice)
  However, this system has fractional occupation numbers. Since we use a finite k-point grid,
  this material is metallic within the approximate finite broadening function (occupation_type)
  applied to determine the occupation numbers.

  | Chemical Potential                          :    -5.91060160 eV
  | Note that, for insulating systems, the printed 'chemical potential' value is not uniquely defined.
  | It can be anywhere in the energy gap, as long as it correctly separates occupied and unoccupied states.
  | In systems with a gap, the physically relevant chemical potential is the VBM or HOMO.

  Self-consistency cycle converged.

  +-------------------------------------------------------------------+
  |              Analytical stress tensor - Symmetrized               |
  |                  Cartesian components [eV/A**3]                   |
  +-------------------------------------------------------------------+
  |                x                y                z                |
  |                                                                   |
  |  x         0.11591665      -0.00000000      -0.00000000           |
  |  y        -0.00000000       0.11591655      -0.00000000           |
  |  z        -0.00000000      -0.00000000       0.21092570           |
  |                                                                   |
  |  Pressure:      -0.14758630   [eV/A**3]                           |
  |                                                                   |
  +-------------------------------------------------------------------+
  Removing unitary transformations (pure translations, rotations) from forces on atoms.
  Atomic forces before filtering:
  | Net force on center of mass :  -0.186870E-08 -0.158115E-08 -0.189111E-08 eV/A
  Atomic forces after filtering:
  | Net force on center of mass :  -0.656964E-16 -0.773991E-16  0.332307E-24 eV/A

  Energy and forces in a compact form:
  | Total energy uncorrected      :         -0.239909861700300E+05 eV
  | Total energy corrected        :         -0.239909906666898E+05 eV  <-- do not rely on this value for anything but (periodic) metals
  | Electronic free energy        :         -0.239909951633496E+05 eV
  Total atomic forces (unitary forces cleaned) [eV/Ang]:
  |    1          0.256565690145788E+00          0.256554741691904E+00          0.443896799671591E-09
  |    2         -0.256565689277098E+00         -0.256554740661536E+00          0.292011098268815E-09
  |    3         -0.256565689142782E+00          0.256554741625706E+00          0.308064710637178E-09
  |    4          0.256565690053153E+00         -0.256554741032054E+00          0.496319995723695E-09
  |    5          0.929291379043119E-09          0.867750100968437E-09          0.825510568478353E-10
  |    6         -0.270835294357492E-08         -0.249176939608477E-08         -0.162284366114911E-08

  Removing unitary transformations (pure translations, rotations) from forces on atoms.
  Atomic forces before filtering:
  | Net force on center of mass :  -0.656964E-16 -0.773991E-16  0.332307E-24 eV/A
  Atomic forces after filtering:
  | Net force on center of mass :  -0.656964E-16 -0.773991E-16  0.000000E+00 eV/A
 ------------------------------------------------------------------------
 Atomic structure that was used in the preceding time step of the wrapper
                         x [A]             y [A]             z [A]
  lattice_vector         4.65204084        0.00000000        0.00000000
  lattice_vector         0.00000000        4.65204084        0.00000000
  lattice_vector         0.00000000        0.00000000        3.25137414

            atom         1.41913387        1.41913387        0.00000000  O
            atom         3.23290697        3.23290697        0.00000000  O
            atom         0.90688655        3.74515429        1.62568707  O
            atom         3.74515429        0.90688655        1.62568707  O
            atom        -0.00000000       -0.00000000       -0.00000000  Si
            atom         2.32602042        2.32602042        1.62568707  Si
 ------------------------------------------------------------------------
  @ DRIVER MODE: Message from server: STATUS      
  @ DRIVER MODE: Message from server: GETFORCE    
  @ DRIVER MODE: Returning v,forces,stress 
  @ DRIVER MODE: Message from server: STATUS      
  @ DRIVER MODE: Message from server: INIT        
  @ DRIVER MODE: Receiving replica           0
  @ DRIVER MODE: Message from server: STATUS      
  @ DRIVER MODE: Message from server: POSDATA     
  @ DRIVER MODE: Received positions 

------------------------------------------------------------
          Begin self-consistency loop: Re-initialization.

  Date     :  20240327, Time     :  165806.372
------------------------------------------------------------

  Initializing index lists of integration centers etc. from given atomic structure:
  Mapping all atomic coordinates to central unit cell.

  Initializing the k-points
  Using symmetry for reducing the k-points
  | k-points reduced from:       80 to       42
  | Number of k-points                             :        42
  The eigenvectors in the calculations are COMPLEX.
  | K-points in task   0:         1
  | K-points in task   1:         2
  | K-points in task   2:         2
  | K-points in task   3:         1
  | K-points in task   4:         1
  | K-points in task   5:         1
  | K-points in task   6:         1
  | K-points in task   7:         1
  | K-points in task   8:         1
  | K-points in task   9:         1
  | K-points in task  10:         1
[...]
            atom         2.20445313        2.20445313        1.46624524  Si
 ------------------------------------------------------------------------
  @ DRIVER MODE: Message from server: STATUS      
  @ DRIVER MODE: Message from server: GETFORCE    
  @ DRIVER MODE: Returning v,forces,stress 
  @ DRIVER MODE: Message from server: STATUS      
  @ DRIVER MODE: Message from server: INIT        
  @ DRIVER MODE: Receiving replica           0
  @ DRIVER MODE: Message from server: STATUS      
  @ DRIVER MODE: Message from server: POSDATA     
  @ DRIVER MODE: Received positions 

------------------------------------------------------------
          Begin self-consistency loop: Re-initialization.

  Date     :  20240327, Time     :  165830.130
------------------------------------------------------------

  Initializing index lists of integration centers etc. from given atomic structure:
  Mapping all atomic coordinates to central unit cell.

  Initializing the k-points
  Using symmetry for reducing the k-points
  | k-points reduced from:       80 to       42
  | Number of k-points                             :        42
  The eigenvectors in the calculations are COMPLEX.
  | K-points in task   0:         1
  | K-points in task   1:         2
  | K-points in task   2:         2
  | K-points in task   3:         1
  | K-points in task   4:         1
  | K-points in task   5:         1
  | K-points in task   6:         1
  | K-points in task   7:         1
  | K-points in task   8:         1
  | K-points in task   9:         1
  | K-points in task  10:         1
  | K-points in task  11:         1
  | K-points in task  12:         1
  | K-points in task  13:         1
  | K-points in task  14:         1
  | K-points in task  15:         1
  | K-points in task  16:         1
  | K-points in task  17:         1
  | K-points in task  18:         1
  | K-points in task  19:         1
  | K-points in task  20:         1
  | K-points in task  21:         1
  | K-points in task  22:         1
  | K-points in task  23:         1
  | K-points in task  24:         1
  | K-points in task  25:         1
  | K-points in task  26:         1
  | K-points in task  27:         1
  | K-points in task  28:         1
  | K-points in task  29:         1
  | K-points in task  30:         1
  | K-points in task  31:         1
  | K-points in task  32:         1
  | K-points in task  33:         1
  | K-points in task  34:         1
  | K-points in task  35:         1
  | K-points in task  36:         1
  | K-points in task  37:         1
  | K-points in task  38:         1
  | K-points in task  39:         1
  | Number of basis functions in the Hamiltonian integrals :       977
  | Number of basis functions in a single unit cell        :        38
  | Number of centers in hartree potential         :      1134
  | Number of centers in hartree multipole         :       822
  | Number of centers in electron density summation:       570
  | Number of centers in basis integrals           :       618
  | Number of centers in integrals                 :       203
  | Number of centers in hamiltonian               :       570
  | Consuming         89 KiB for k_phase.
  | Number of super-cells (origin) [n_cells]                     :         891
  | Number of super-cells (after PM_index) [n_cells]             :         136
  | Number of super-cells in hamiltonian [n_cells_in_hamiltonian]:         136
  | Size of matrix packed + index [n_hamiltonian_matrix_size] :       28817
  Partitioning the integration grid into batches with parallel hashing+maxmin method.
  Initializing partition tables, free-atom densities, potentials, etc. across the integration grid (initialize_grid_storage).
  | Species        1: outer_partition_radius set to              5.048384829883283 AA .
  | Species        2: outer_partition_radius set to              5.000694715736543 AA .
  | Net number of integration points:    36984
  | of which are non-zero points    :    29756
  Renormalizing the initial density to the exact electron count on the 3D integration grid.
  | Initial density: Formal number of electrons (from input files) :      60.0000000000
  | Integrated number of electrons on 3D grid     :      60.0008423412
  | Charge integration error                      :       0.0008423412
  | Normalization factor for density and gradient :       0.9999859612
  Calculating total energy contributions from superposition of free atom densities.
  Initialize hartree_potential_storage
  Max. number of atoms included in rho_multipole:            6
  Integrating overlap matrix.
  Time summed over all CPUs for integration: real work        0.598 s, elapsed        0.646 s
  Orthonormalizing eigenvectors

  End scf reinitialization - timings           :  max(cpu_time)    wall_clock(cpu1)
  | Time for scf. reinitialization              :        0.213 s           0.214 s
  | Boundary condition initialization           :        0.067 s           0.067 s
  | Integration                                 :        0.017 s           0.017 s
  | Grid partitioning                           :        0.015 s           0.015 s
  | Preloading free-atom quantities on grid     :        0.103 s           0.103 s
  | Free-atom superposition energy              :        0.011 s           0.011 s
  | K.-S. eigenvector reorthonormalization      :        0.000 s           0.000 s
------------------------------------------------------------
  Time for density update prior                :  max(cpu_time)    wall_clock(cpu1)
  | self-consistency iterative process          :        0.033 s           0.032 s
------------------------------------------------------------
Convergence:    q app. |  density  | eigen (eV) | Etot (eV) | forces (eV/A) |       CPU time |     Clock time
  SCF    1 :  0.85E-03 |  0.38E+00 |  -0.13E+05 | -0.24E+05 |             . |        0.135 s |        0.135 s
  SCF    2 :  0.85E-03 |  0.73E-05 |   0.43E-05 |  0.24E-09 |             . |        0.182 s |        0.180 s
  SCF    3 :  0.85E-03 |  0.72E-05 |   0.35E-03 |  0.20E-07 |             . |        0.182 s |        0.179 s
  SCF    4 :  0.85E-03 |  0.16E-05 |  -0.11E-03 |  0.22E-07 |             . |        0.191 s |        0.190 s
  SCF    5 :  0.85E-03 |  0.10E-06 |  -0.15E-05 |  0.59E-10 |             . |        0.187 s |        0.185 s
  SCF    6 :  0.85E-03 |  0.45E-07 |  -0.44E-06 |  0.31E-10 |      0.93E+01 |        0.455 s |        0.455 s
  SCF    7 :  0.85E-03 |  0.37E-07 |  -0.20E-05 | -0.11E-09 |      0.56E-05 |        0.984 s |        0.985 s

  Total energy components:
  | Sum of eigenvalues            :        -495.58572688 Ha      -13485.57376675 eV
  | XC energy correction          :         -76.30408236 Ha       -2076.33972392 eV
  | XC potential correction       :          98.38402451 Ha        2677.16551970 eV
  | Free-atom electrostatic energy:        -406.23542915 Ha      -11054.22846026 eV
  | Hartree energy correction     :          -1.96131750 Ha         -53.37016451 eV
  | Entropy correction            :          -0.00000375 Ha          -0.00010209 eV
  | ---------------------------
  | Total energy                  :        -881.70253137 Ha      -23992.34659575 eV
  | Total energy, T -> 0          :        -881.70253512 Ha      -23992.34669784 eV  <-- do not rely on this value for anything but (periodic) metals
  | Electronic free energy        :        -881.70253887 Ha      -23992.34679992 eV

  Derived energy quantities:
  | Kinetic energy                :         884.83074915 Ha       24077.46973249 eV
  | Electrostatic energy          :       -1690.22919816 Ha      -45993.47660431 eV
  | Energy correction for multipole
  | error in Hartree potential    :           0.00997186 Ha           0.27134819 eV
  | Sum of eigenvalues per atom                           :       -2247.59562779 eV
  | Total energy (T->0) per atom                          :       -3998.72444964 eV  <-- do not rely on this value for anything but (periodic) metals
  | Electronic free energy per atom                       :       -3998.72446665 eV
  What follows are estimated values for band gap, HOMO, LUMO, etc.
  | They are estimated on a discrete k-point grid and not necessarily exact.
  | For converged numbers, create a DOS and/or band structure plot on a denser k-grid.

  Highest occupied state (VBM) at     -5.84118675 eV (relative to internal zero)
  | Occupation number:      1.98939287
  | K-point:       1 at    0.000000    0.000000    0.000000 (in units of recip. lattice)

  Lowest unoccupied state (CBM) at    -4.81117215 eV (relative to internal zero)
  | Occupation number:      0.01253503
  | K-point:       1 at    0.000000    0.000000    0.000000 (in units of recip. lattice)

  ESTIMATED overall HOMO-LUMO gap:      1.03001460 eV between HOMO at k-point 1 and LUMO at k-point 1
  | This appears to be a direct band gap.
  The gap value is above 0.2 eV. Unless you are using a very sparse k-point grid,
  this system is most likely an insulator or a semiconductor.

  | Chemical Potential                          :    -5.31778095 eV
  | Note that, for insulating systems, the printed 'chemical potential' value is not uniquely defined.
  | It can be anywhere in the energy gap, as long as it correctly separates occupied and unoccupied states.
  | In systems with a gap, the physically relevant chemical potential is the VBM or HOMO.

  Self-consistency cycle converged.

  +-------------------------------------------------------------------+
  |              Analytical stress tensor - Symmetrized               |
  |                  Cartesian components [eV/A**3]                   |
  +-------------------------------------------------------------------+
  |                x                y                z                |
  |                                                                   |
  |  x         0.00000041      -0.00000000       0.00000000           |
  |  y        -0.00000000       0.00000113      -0.00000000           |
  |  z         0.00000000      -0.00000000       0.00000247           |
  |                                                                   |
  |  Pressure:      -0.00000134   [eV/A**3]                           |
  |                                                                   |
  +-------------------------------------------------------------------+
  Removing unitary transformations (pure translations, rotations) from forces on atoms.
  Atomic forces before filtering:
  | Net force on center of mass :   0.201667E-07  0.101769E-07 -0.440193E-08 eV/A
  Atomic forces after filtering:
  | Net force on center of mass :  -0.147810E-20  0.957045E-22  0.664615E-24 eV/A

  Energy and forces in a compact form:
  | Total energy uncorrected      :         -0.239923465957474E+05 eV
  | Total energy corrected        :         -0.239923466978355E+05 eV  <-- do not rely on this value for anything but (periodic) metals
  | Electronic free energy        :         -0.239923467999236E+05 eV
  Total atomic forces (unitary forces cleaned) [eV/Ang]:
  |    1          0.125536265390816E-04         -0.222555477334239E-06          0.988226508223067E-09
  |    2         -0.125397109560998E-04          0.242030249020452E-06          0.798089525710594E-09
  |    3         -0.125362029066745E-04         -0.250790151219867E-06         -0.165869373908299E-09
  |    4          0.125349348680915E-04          0.236475795966774E-06          0.221119919004411E-09
  |    5          0.705922803583462E-08          0.252411372948153E-07          0.319089384259163E-09
  |    6         -0.197067724345910E-07         -0.304015537279354E-07         -0.216065596328893E-08

  Removing unitary transformations (pure translations, rotations) from forces on atoms.
  Atomic forces before filtering:
  | Net force on center of mass :  -0.147810E-20  0.957045E-22  0.664615E-24 eV/A
  Atomic forces after filtering:
  | Net force on center of mass :  -0.366867E-21  0.638030E-22  0.664615E-24 eV/A
 ------------------------------------------------------------------------
 Atomic structure that was used in the preceding time step of the wrapper
                         x [A]             y [A]             z [A]
  lattice_vector         4.40891424        0.00000000        0.00000000
  lattice_vector         0.00000000        4.40891424        0.00000000
  lattice_vector         0.00000000        0.00000000        2.93245942

            atom         1.34922662        1.34922662       -0.00000000  O
            atom         3.05968762        3.05968762        0.00000000  O
            atom         0.85523050        3.55368373        1.46622971  O
            atom         3.55368373        0.85523050        1.46622971  O
            atom        -0.00000000       -0.00000000       -0.00000000  Si
            atom         2.20445712        2.20445712        1.46622971  Si
 ------------------------------------------------------------------------
  @ DRIVER MODE: Message from server: STATUS      
  @ DRIVER MODE: Message from server: GETFORCE    
  @ DRIVER MODE: Returning v,forces,stress 

------------------------------------------------------------------------------
  Final output of selected total energy values:

  The following output summarizes some interesting total energy values
  at the end of a run (AFTER all relaxation, molecular dynamics, etc.).

  | Total energy of the DFT / Hartree-Fock s.c.f. calculation      :         -23992.346595747 eV
  | Final zero-broadening corrected energy (caution - metals only) :         -23992.346697836 eV
  | For reference only, the value of 1 Hartree used in FHI-aims is :             27.211384500 eV
  | For reference only, the overall average (free atom contribution
  | + realspace contribution) of the electrostatic potential after
  | s.c.f. convergence is                                          :            -15.501563080 eV

  Before relying on these values, please be sure to understand exactly which
  total energy value is referred to by a given number. Different objects may
  all carry the same name 'total energy'. Definitions:

  Total energy of the DFT / Hartree-Fock s.c.f. calculation:
  | Note that this energy does not include ANY quantities calculated after the
  | s.c.f. cycle, in particular not ANY RPA, MP2, etc. many-body perturbation terms.

  Final zero-broadening corrected energy:
  | For metallic systems only, a broadening of the occupation numbers at the Fermi
  | level can be extrapolated back to zero broadening by an electron-gas inspired
  | formula. For all systems that are not real metals, this value can be
  | meaningless and should be avoided.

------------------------------------------------------------------------------
  Methods described in the following list of references were used in this FHI-aims run.
  If you publish the results, please make sure to cite these reference if they apply.
  FHI-aims is an academic code, and for our developers (often, Ph.D. students
  and postdocs), scientific credit in the community is essential.
  Thank you for helping us!

  For any use of FHI-aims, please cite:

    Volker Blum, Ralf Gehrke, Felix Hanke, Paula Havu, Ville Havu,
    Xinguo Ren, Karsten Reuter, and Matthias Scheffler
    'Ab initio molecular simulations with numeric atom-centered orbitals'
    Computer Physics Communications 180, 2175-2196 (2009)
    http://doi.org/10.1016/j.cpc.2009.06.022


  For the analytical stress tensor used in your run, please cite:

    Franz Knuth, Christian Carbogno, Viktor Atalla, Volker Blum, Matthias Scheffler
    'All-electron formalism for total energy strain derivatives and
    stress tensor components for numeric atom-centered orbitals'
    Computer Physics Communications 190, 33-50 (2015).
    http://doi.org/10.1016/j.cpc.2015.01.003


  The provided symmetry information was generated with SPGlib:

    Atsushi Togo, Yusuke Seto, Dimitar Pashov
    SPGlib 1.7.3 obtained from http://spglib.sourceforge.net
    Copyright (C) 2008 Atsushi Togo


  The ELSI infrastructure was used in your run to solve the Kohn-Sham electronic structure.
  Please check out http://elsi-interchange.org to learn more.
  If scalability is important for your project, please acknowledge ELSI by citing:

    V. W-z. Yu, F. Corsetti, A. Garcia, W. P. Huhn, M. Jacquelin, W. Jia,
    B. Lange, L. Lin, J. Lu, W. Mi, A. Seifitokaldani, A. Vazquez-Mayagoitia,
    C. Yang, H. Yang, and V. Blum
    'ELSI: A unified software interface for Kohn-Sham electronic structure solvers'
    Computer Physics Communications 222, 267-285 (2018).
    http://doi.org/10.1016/j.cpc.2017.09.007


  For the real-space grid partitioning and parallelization used in this calculation, please cite:

    Ville Havu, Volker Blum, Paula Havu, and Matthias Scheffler,
    'Efficient O(N) integration for all-electron electronic structure calculation'
    'using numerically tabulated basis functions'
    Journal of Computational Physics 228, 8367-8379 (2009).
    http://doi.org/10.1016/j.jcp.2009.08.008

  Of course, there are many other important community references, e.g., those cited in the
  above references. Our list is limited to references that describe implementations in the
  FHI-aims code. The reason is purely practical (length of this list) - please credit others as well.

------------------------------------------------------------
          Leaving FHI-aims.
          Date     :  20240327, Time     :  165832.849

          Computational steps:
          | Number of self-consistency cycles          :          109
          | Number of SCF (re)initializations          :           10

          Detailed time accounting                     :  max(cpu_time)    wall_clock(cpu1)
          | Total time                                  :       35.360 s          36.456 s
          | Preparation time                            :        0.145 s           0.145 s
          | Boundary condition initalization            :        0.640 s           0.642 s
          | Grid partitioning                           :        0.147 s           0.147 s
          | Preloading free-atom quantities on grid     :        1.032 s           1.037 s
          | Free-atom superposition energy              :        0.097 s           0.095 s
          | Total time for integrations                 :        3.111 s           3.107 s
          | Total time for solution of K.-S. equations  :        0.337 s           0.339 s
          | Total time for density & force components   :        9.211 s           9.221 s
          | Total time for mixing & preconditioning     :        4.078 s           3.907 s
          | Total time for Hartree multipole update     :        0.104 s           0.101 s
          | Total time for Hartree multipole sum        :       11.564 s          11.592 s
          | Total time for total energy evaluation      :        0.033 s           0.032 s
          | Total time NSC force correction             :        2.528 s           2.536 s
          | Total time for scaled ZORA corrections      :        0.000 s           0.000 s

          Partial memory accounting:
          | Residual value for overall tracked memory usage across tasks:     0.000000 MB (should be 0.000000 MB)
          | Peak values for overall tracked memory usage:
          |   Minimum:        6.856 MB (on task  5 after allocating d_wave)
          |   Maximum:        7.309 MB (on task  6 after allocating d_wave)
          |   Average:        7.102 MB
          | Largest tracked array allocation:
          |   Minimum:        1.657 MB (hessian_basis_wave on task  5)
          |   Maximum:        1.763 MB (hessian_basis_wave on task  6)
          |   Average:        1.714 MB
          Note:  These values currently only include a subset of arrays which are explicitly tracked.
          The "true" memory usage will be greater.

          Have a nice day.
------------------------------------------------------------

