------------------------------------------------------------
          Invoking FHI-aims ...

          When using FHI-aims, please cite the following reference:

            Volker Blum, Ralf Gehrke, Felix Hanke, Paula Havu,
            Ville Havu, Xinguo Ren, Karsten Reuter, and Matthias Scheffler,
            'Ab Initio Molecular Simulations with Numeric Atom-Centered Orbitals',
            Computer Physics Communications 180, 2175-2196 (2009)

          In addition, many other developments in FHI-aims are likely important for
          your particular application. A partial list of references is given at the end of
          this file. Thank you for giving credit to the authors of these developments.

          For any questions about FHI-aims, please visit our slack channel at

            https://fhi-aims.slack.com

          and our main development and support site at

            https://aims-git.rz-berlin.mpg.de .

          The latter site, in particular, has a wiki to collect information, as well
          as an issue tracker to log discussions, suggest improvements, and report issues
          or bugs. https://aims-git.rz-berlin.mpg.de is also the main development site
          of the project and all new and updated code versions can be obtained there.
          Please send an email to aims-coordinators@fhi-berlin.mpg.de and we will add
          you to these sites. They are for you and everyone is welcome there.

------------------------------------------------------------



  Date     :  20221120, Time     :  032510.138
  Time zero on CPU 1             :   0.576074000000000E+00  s.
  Internal wall clock time zero  :           438146710.138  s.

  FHI-aims created a unique identifier for this run for later identification
  aims_uuid : C1CD4B05-BC9D-433E-AC7F-0110E191CE28

  Build configuration of the current instance of FHI-aims
  -------------------------------------------------------
  FHI-aims version      : 221103
  Commit number         : fe4ac0929
  CMake host system     : Linux-3.10.0-1160.76.1.el7.x86_64
  CMake version         : 3.16.2
  Fortran compiler      : /sw/comm/impi/compilers_and_libraries_2019.5.281/linux/mpi/intel64/bin/mpiifort (Intel) version 19.0.5.20190815
  Fortran compiler flags: -O3 -ip -fp-model precise
  C compiler            : /sw/comm/impi/compilers_and_libraries_2019.5.281/linux/mpi/intel64/bin/mpiicc (Intel) version 19.0.5.20190815
  C compiler flags      : -O3 -ip -fp-model precise -std=gnu99
  C++ compiler          : /sw/comm/impi/compilers_and_libraries_2019.5.281/linux/mpi/intel64/bin/mpiicpc (Intel) version 19.0.5.20190815
  C++ compiler flags    : -O3 -ip -fp-model precise
  HIP compiler          :
  HIP compiler flags    :
  HIP GPU arch          :
  ELPA2 kernel          : AVX512
  Using MPI
  Using ScaLAPACK
  Using LibXC
  Using i-PI
  Using RLSY
  Linking against: /sw/compiler/intel/compilers_and_libraries_2019.5.281/linux/mkl/lib/intel64/libmkl_intel_lp64.so
                   /sw/compiler/intel/compilers_and_libraries_2019.5.281/linux/mkl/lib/intel64/libmkl_sequential.so
                   /sw/compiler/intel/compilers_and_libraries_2019.5.281/linux/mkl/lib/intel64/libmkl_core.so
                   /sw/compiler/intel/compilers_and_libraries_2019.5.281/linux/mkl/lib/intel64/libmkl_blacs_intelmpi_lp64.so
                   /sw/compiler/intel/compilers_and_libraries_2019.5.281/linux/mkl/lib/intel64/libmkl_scalapack_lp64.so

  Using       32 parallel tasks.
  Task        0 on host gcn2220 reporting.
  Task        1 on host gcn2220 reporting.
  Task        2 on host gcn2220 reporting.
  Task        3 on host gcn2220 reporting.
  Task        4 on host gcn2220 reporting.
  Task        5 on host gcn2220 reporting.
  Task        6 on host gcn2220 reporting.
  Task        7 on host gcn2220 reporting.
  Task        8 on host gcn2220 reporting.
  Task        9 on host gcn2220 reporting.
  Task       10 on host gcn2220 reporting.
  Task       11 on host gcn2220 reporting.
  Task       12 on host gcn2220 reporting.
  Task       13 on host gcn2220 reporting.
  Task       14 on host gcn2220 reporting.
  Task       15 on host gcn2220 reporting.
  Task       16 on host gcn2220 reporting.
  Task       17 on host gcn2220 reporting.
  Task       18 on host gcn2220 reporting.
  Task       19 on host gcn2220 reporting.
  Task       20 on host gcn2220 reporting.
  Task       21 on host gcn2220 reporting.
  Task       22 on host gcn2220 reporting.
  Task       23 on host gcn2220 reporting.
  Task       24 on host gcn2220 reporting.
  Task       25 on host gcn2220 reporting.
  Task       26 on host gcn2220 reporting.
  Task       27 on host gcn2220 reporting.
  Task       28 on host gcn2220 reporting.
  Task       29 on host gcn2220 reporting.
  Task       30 on host gcn2220 reporting.
  Task       31 on host gcn2220 reporting.

  Performing system and environment tests:
  | Environment variable OMP_NUM_THREADS correctly set to 1.
  | Checking for ScaLAPACK...
  | Testing pdtran()...
  | All pdtran() tests passed.

  Obtaining array dimensions for all initial allocations:
  
  -----------------------------------------------------------------------
  Parsing control.in (first pass over file, find array dimensions only).
  The contents of control.in will be repeated verbatim below
  unless switched off by setting 'verbatim_writeout .false.' .
  in the first line of control.in .
  -----------------------------------------------------------------------
  
  #===============================================================================
  # FHI-aims file: ./control.in
  # Created using the Atomic Simulation Environment (ASE)
  # Sun Nov 20 03:25:08 2022
  #===============================================================================
  xc                                 pbe
  occupation_acc                     1e-08
  sc_accuracy_rho                    1e-05
  sc_accuracy_eev                    1e-05
  sc_accuracy_etot                   1e-05
  sc_iter_limit                      8000
  occupation_type                    fermi 0.1
  spin                               none
  charge                             0.0
  mixer                              pulay
  n_max_pulay                        10
  charge_mix_param                   0.01
  preconditioner                     kerker 1.5
  override_relativity                .true.
  override_illconditioning           .true.
  compensate_multipole_errors        .false.
  relativistic                       atomic_zora scalar
  sc_accuracy_forces                 0.0001
  compute_forces                     .true.
  compute_analytical_stress          .true.
  k_grid                             10 7 6
  output_level                       MD_light
  use_pimd_wrapper                   localhost 12347
  #===============================================================================
  
  ################################################################################
  #
  #  FHI-aims code project
  #  Volker Blum, Fritz Haber Institute Berlin, 2009
  #
  #  Suggested "tight" defaults for Si atom (to be pasted into control.in file)
  #
  #  Revised Jan 04, 2011, following tests (SiC) done by Lydia Nemec:
  #     d and g functions of tier 2 now enabled by default.
  #
  ################################################################################
    species        Si
  #     global species definitions
      nucleus             14
      mass                28.0855
  #
      l_hartree           6
  #
      cut_pot             4.0          2.0  1.0
      basis_dep_cutoff    1e-4
  #
      radial_base         42 7.0
      radial_multiplier   2
      angular_grids       specified
        division   0.4121   50
        division   0.7665  110
        division   1.0603  194
        division   1.2846  302
        division   1.4125  434
  #      division   1.4810  590
  #      division   1.5529  770
  #      division   1.6284  974
  #      division   2.6016 1202
  #      outer_grid   974
        outer_grid  434
  ################################################################################
  #
  #  Definition of "minimal" basis
  #
  ################################################################################
  #     valence basis states
      valence      3  s   2.
      valence      3  p   2.
  #     ion occupancy
      ion_occ      3  s   1.
      ion_occ      3  p   1.
  ################################################################################
  #
  #  Suggested additional basis functions. For production calculations,
  #  uncomment them one after another (the most important basis functions are
  #  listed first).
  #
  #  Constructed for dimers: 1.75 A, 2.0 A, 2.25 A, 2.75 A, 3.75 A
  #
  ################################################################################
  #  "First tier" - improvements: -571.96 meV to -37.03 meV
       hydro 3 d 4.2
       hydro 2 p 1.4
       hydro 4 f 6.2
       ionic 3 s auto
  #  "Second tier" - improvements: -16.76 meV to -3.03 meV
       hydro 3 d 9
       hydro 5 g 9.4
       hydro 4 p 4
       hydro 1 s 0.65
  #  "Third tier" - improvements: -3.89 meV to -0.60 meV
  #     ionic 3 d auto
  #     hydro 3 s 2.6
  #     hydro 4 f 8.4
  #     hydro 3 d 3.4
  #     hydro 3 p 7.8
  #  "Fourth tier" - improvements: -0.33 meV to -0.11 meV
  #     hydro 2 p 1.6
  #     hydro 5 g 10.8
  #     hydro 5 f 11.2
  #     hydro 3 d 1
  #     hydro 4 s 4.5
  #  Further basis functions that fell out of the optimization - noise
  #  level... < -0.08 meV
  #     hydro 4 d 6.6
  #     hydro 5 g 16.4
  #     hydro 4 d 9
  ################################################################################
  #
  # For methods that use the localized form of the "resolution of identity" for
  # the two-electron Coulomb operator (RI_method LVL), particularly Hartree-Fock and
  # hybrid density functional calculations, the highest accuracy can be obtained by
  # uncommenting the line beginning with "for_aux"  below, thus adding an extra g radial
  # function to the construction of the product basis set for the expansion.
  # See Ref. New J. Phys. 17, 093020 (2015) for more information, particularly Figs. 1 and 6.
  #
  ################################################################################
  #
  # for_aux hydro 5 g 6.0
  ################################################################################
  #
  #  FHI-aims code project
  #  Volker Blum, Fritz Haber Institute Berlin, 2009
  #
  #  Suggested "tight" defaults for Sr atom (to be pasted into control.in file)
  #
  #  2016/03/28 Added "g" function from tier 2 to default basis set (noticeable
  #             improvement in Delta Project)
  #
  #  2018/01/30 Increased the cut_pot radius for "tight" to 6.0 AA to be consistent
  #             with Rb, Cs, Ba. This is a VERY large value and will make especially
  #             hybrid functional calculations very costly. However, our data for
  #             neutral Sr containing systems support this value (it's just a big atom).
  #             Consider reducing the cut_pot value for ionic bonding situations,
  #             which could be entirely justified (see intermediate settings).
  #
  ################################################################################
    species          Sr
  #     global species definitions
      nucleus        38
      mass           87.62
  #
      l_hartree      6
  #
      cut_pot        6.0  2.0  1.0
      basis_dep_cutoff    1e-4
  #
      radial_base    57  7.0
      radial_multiplier  2
      angular_grids specified
        division   0.6981  110
        division   0.9394  194
        division   1.1230  302
        division   1.2482  434
  #      division   1.3391  590
  #      division   1.4365  770
  #      division   7.0005  974
  #      outer_grid  974
        outer_grid  434
  ################################################################################
  #
  #  Definition of "minimal" basis
  #
  ################################################################################
  #     valence basis states
      valence      5  s   2.
      valence      4  p   6.
      valence      3  d  10.
  #     ion occupancy
      ion_occ      5  s   1.
      ion_occ      4  p   6.
      ion_occ      3  d  10.
  ################################################################################
  #
  #  Suggested additional basis functions. For production calculations,
  #  uncomment them one after another (the most important basis functions are
  #  listed first).
  #
  #  Constructed for dimers: 2.75, 3.50, 4.40, 5.00 A
  #
  ################################################################################
  #  "First tier" - improvements: -289.57 meV to -14.02 meV
       ionic 4 d auto
       ionic 5 p auto
       hydro 4 f 5.6
       ionic 5 s auto
  #  "Second tier" - improvements: -4.95 meV to -0.45 meV
       hydro 5 g 7.4
       hydro 4 d 4.4
       hydro 3 p 3.3
       hydro 6 h 10.4
       hydro 5 s 4.9
       hydro 5 f 13.2
  #  "Third tier" - improvements: -0.38 meV to -0.11 meV
  #     hydro 6 p 4.8
  #     hydro 5 f 6
  #     hydro 2 p 1.2
  #     hydro 1 s 0.55
  #     hydro 5 d 3.6
  #  "Fourth tier" - improvements: -0.12 meV and lower.
  #     hydro 5 p 5.2
  #     hydro 4 f 14.8
  #     hydro 5 g 7.6
  #     hydro 4 p 4.5
  #     hydro 5 d 5.4
  #     hydro 6 s 6.8
  
  -----------------------------------------------------------------------
  Completed first pass over input file control.in .
  -----------------------------------------------------------------------
  
  
  -----------------------------------------------------------------------
  Parsing geometry.in (first pass over file, find array dimensions only).
  The contents of geometry.in will be repeated verbatim below
  unless switched off by setting 'verbatim_writeout .false.' .
  in the first line of geometry.in .
  -----------------------------------------------------------------------
  
  #=======================================================
  # FHI-aims file: ./geometry.in
  # Created using the Atomic Simulation Environment (ASE)
  # Sun Nov 20 03:25:08 2022
  #=======================================================
  lattice_vector 5.1431222311870002 0.0000000000000000 0.0000000000000000
  lattice_vector 0.0000000000000000 8.1187471589349993 0.0000000000000000
  lattice_vector 0.0000000000000000 0.0000000000000000 9.5981648580550001
  atom_frac 0.2500000000000000 0.2524672161830000 0.8975828803930002 Si
  atom_frac 0.7500000000000000 0.2475327838170000 0.3975828803930002 Si
  atom_frac 0.7500000000000000 0.7475327838170001 0.1024171196069999 Si
  atom_frac 0.2500000000000000 0.7524672161829999 0.6024171196069998 Si
  atom_frac 0.2500000000000000 0.6505228756030000 0.9220932029030001 Sr
  atom_frac 0.7500000000000000 0.8494771243970000 0.4220932029030002 Sr
  atom_frac 0.7500000000000000 0.3494771243970000 0.0779067970970000 Sr
  atom_frac 0.2500000000000000 0.1505228756029999 0.5779067970969999 Sr
  atom_frac 0.2500000000000000 0.5187555639260000 0.3265814637640001 Sr
  atom_frac 0.7500000000000000 0.9812444360740000 0.8265814637640001 Sr
  atom_frac 0.7500000000000000 0.4812444360740000 0.6734185362360000 Sr
  atom_frac 0.2500000000000000 0.0187555639260000 0.1734185362360000 Sr
  
  -----------------------------------------------------------------------
  Completed first pass over input file geometry.in .
  -----------------------------------------------------------------------
  

  Basic array size parameters:
  | Number of species                 :        2
  | Number of atoms                   :       12
  | Number of lattice vectors         :        3
  | Max. basis fn. angular momentum   :        5
  | Max. atomic/ionic basis occupied n:        5
  | Max. number of basis fn. types    :        3
  | Max. radial fns per species/type  :        9
  | Max. logarithmic grid size        :     1428
  | Max. radial integration grid size :      115
  | Max. angular integration grid size:      434
  | Max. angular grid division number :        8
  | Radial grid for Hartree potential :     1428
  | Number of spin channels           :        1

------------------------------------------------------------
          Reading file control.in.
------------------------------------------------------------
  XC: Using PBE gradient-corrected functionals.
  Accuracy of occupation numbers  :  0.1000E-07
  Convergence accuracy of self-consistent charge density:  0.1000E-04
  Convergence accuracy of sum of eigenvalues:  0.1000E-04
  Convergence accuracy of total energy:  0.1000E-04
  Maximum number of s.-c. iterations  :  8000
  Occupation type: Fermi broadening, width =   0.100000E+00 eV.
  Spin treatment: No spin polarisation.
  Charge =   0.000000E+00: Neutral system requested explicitly.
  Using pulay charge density mixing.
  Pulay mixing - number of memorized iterations:   10
  Charge density mixing - mixing parameter:     0.0100
  Using Kerker preconditioning with damping at q_0 =     0.1500E+01
  override_relativity: Explicitly overriding any built-in relativity checks.
  If you use this flag, you should really know what you are doing.
  override_illconditioning: Explicitly overriding any built-in checks for an ill-conditioned overlap matrix.
  *** WARNING: If you use this flag, you should really know what you are doing.
  *** DO NOT keep this flag set by default in all your control.in files.
  Switching off the compensation of charge integration errors on the
  3D integration grid.
  Scalar relativistic treatment of kinetic energy: on-site free-atom approximation to ZORA.
  Convergence accuracy of forces:  0.1000E-03
  Forces will be computed.
  Found k-point grid:        10         7         6
  Requested output level: MD_light
  Using external wrapper (i-PI) for performing (path integral) molecular dynamics
  **Attention: initial geometry.in file will be ignored!
 
  Reading configuration options for species Si                  .
  | Found nuclear charge :  14.0000
  | Found atomic mass :    28.0855000000000      amu
  | Found l_max for Hartree potential  :   6
  | Found cutoff potl. onset [A], width [A], scale factor :    4.00000    2.00000    1.00000
  | Threshold for basis-dependent cutoff potential is   0.100000E-03
  | Found data for basic radial integration grid :    42 points, outermost radius =    7.000 A
  | Found multiplier for basic radial grid :   2
  | Found angular grid specification: user-specified.
  | Specified grid contains     6 separate shells.
  | Check grid settings after all constraints further below.
  | Found free-atom valence shell :  3 s   2.000
  | Found free-atom valence shell :  3 p   2.000
  | Found free-ion valence shell :  3 s   1.000
  | Found free-ion valence shell :  3 p   1.000
  | Found hydrogenic basis function :  3 d   4.200
  | Found hydrogenic basis function :  2 p   1.400
  | Found hydrogenic basis function :  4 f   6.200
  | Found ionic basis function :  3 s , default cutoff radius.
  | Found hydrogenic basis function :  3 d   9.000
  | Found hydrogenic basis function :  5 g   9.400
  | Found hydrogenic basis function :  4 p   4.000
  | Found hydrogenic basis function :  1 s   0.650
  Species Si                  : Missing cutoff potential type.
  Defaulting to exp(1/x)/(1-x)^2 type cutoff potential.
  Species Si: No 'logarithmic' tag. Using default grid for free atom:
  | Default logarithmic grid data [bohr] : 0.1000E-03 0.1000E+03 0.1012E+01
  | Will include ionic basis functions of  2.0-fold positive Si                   ion.
  Species Si: On-site basis accuracy parameter (for Gram-Schmidt orthonormalisation) not specified.
  Using default value basis_acc =  0.1000000E-03.
  Species Si                  : Using default innermost maximum threshold i_radial=  2 for radial functions.
  Species Si                  : Default cutoff onset for free atom density etc. : 0.40000000E+01 AA.
  Species Si                  : Basic radial grid will be enhanced according to radial_multiplier =   2, to contain    85 grid points.
 
  Reading configuration options for species Sr                  .
  | Found nuclear charge :  38.0000
  | Found atomic mass :    87.6200000000000      amu
  | Found l_max for Hartree potential  :   6
  | Found cutoff potl. onset [A], width [A], scale factor :    6.00000    2.00000    1.00000
  | Threshold for basis-dependent cutoff potential is   0.100000E-03
  | Found data for basic radial integration grid :    57 points, outermost radius =    7.000 A
  | Found multiplier for basic radial grid :   2
  | Found angular grid specification: user-specified.
  | Specified grid contains     5 separate shells.
  | Check grid settings after all constraints further below.
  | Found free-atom valence shell :  5 s   2.000
  | Found free-atom valence shell :  4 p   6.000
  | Found free-atom valence shell :  3 d  10.000
  | Found free-ion valence shell :  5 s   1.000
  | Found free-ion valence shell :  4 p   6.000
  | Found free-ion valence shell :  3 d  10.000
  | Found ionic basis function :  4 d , default cutoff radius.
  | Found ionic basis function :  5 p , default cutoff radius.
  | Found hydrogenic basis function :  4 f   5.600
  | Found ionic basis function :  5 s , default cutoff radius.
  | Found hydrogenic basis function :  5 g   7.400
  | Found hydrogenic basis function :  4 d   4.400
  | Found hydrogenic basis function :  3 p   3.300
  | Found hydrogenic basis function :  6 h  10.400
  | Found hydrogenic basis function :  5 s   4.900
  | Found hydrogenic basis function :  5 f  13.200
  Species Sr                  : Missing cutoff potential type.
  Defaulting to exp(1/x)/(1-x)^2 type cutoff potential.
  Species Sr: No 'logarithmic' tag. Using default grid for free atom:
  | Default logarithmic grid data [bohr] : 0.1000E-03 0.1000E+03 0.1012E+01
  | Will include ionic basis functions of  1.0-fold positive Sr                   ion.
  Species Sr: On-site basis accuracy parameter (for Gram-Schmidt orthonormalisation) not specified.
  Using default value basis_acc =  0.1000000E-03.
  Species Sr                  : Using default innermost maximum threshold i_radial=  2 for radial functions.
  Species Sr                  : Default cutoff onset for free atom density etc. : 0.60000000E+01 AA.
  Species Sr                  : Basic radial grid will be enhanced according to radial_multiplier =   2, to contain   115 grid points.
 
  Finished reading input file 'control.in'.
 
------------------------------------------------------------


------------------------------------------------------------
          Reading geometry description geometry.in.
------------------------------------------------------------
  | The smallest distance between any two atoms is         3.17797255 AA.
  | The first atom of this pair is atom number                      2 .
  | The second atom of this pair is atom number                     7 .
  | Wigner-Seitz cell of the first atom image           0     0     0 .
  | (The Wigner-Seitz cell of the second atom is 0 0 0  by definition.)

  Symmetry information by spglib:
  | Precision set to  0.1E-04
  | Number of Operations  : 8
  | Space group           : 62
  | International         : Pnma     A
  | Schoenflies           : D2h^16
  Input structure read successfully.
  The structure contains       12 atoms,  and a total of        360.000 electrons.

  Input geometry:
  | Unit cell:
  |        5.14312223        0.00000000        0.00000000
  |        0.00000000        8.11874716        0.00000000
  |        0.00000000        0.00000000        9.59816486
  | Atomic structure:
  |       Atom                x [A]            y [A]            z [A]
  |    1: Species Si            1.28578056        2.04971749        8.61514846
  |    2: Species Si            3.85734167        2.00965609        3.81606603
  |    3: Species Si            3.85734167        6.06902966        0.98301640
  |    4: Species Si            1.28578056        6.10909107        5.78209883
  |    5: Species Sr            1.28578056        5.28143075        8.85040258
  |    6: Species Sr            3.85734167        6.89668999        4.05132015
  |    7: Species Sr            3.85734167        2.83731641        0.74776228
  |    8: Species Sr            1.28578056        1.22205717        5.54684471
  |    9: Species Sr            1.28578056        4.21164526        3.13458273
  |   10: Species Sr            3.85734167        7.96647548        7.93366516
  |   11: Species Sr            3.85734167        3.90710190        6.46358213
  |   12: Species Sr            1.28578056        0.15227168        1.66449970

  Lattice parameters for 3D lattice (in Angstroms) :     5.143122    8.118747    9.598165
  Angle(s) between unit vectors (in degrees)       :    90.000000   90.000000   90.000000


  Quantities derived from the lattice vectors (in Angstrom^-1):
  | Reciprocal lattice vector 1:  1.221668  0.000000  0.000000
  | Reciprocal lattice vector 2:  0.000000  0.773911  0.000000
  | Reciprocal lattice vector 3:  0.000000  0.000000  0.654624
  | Unit cell volume                               :   0.400778E+03  Angstrom^3

 
  Finished reading input file 'geometry.in'.
 

 
  Consistency checks for stacksize environment parameter are next.
 
  | Maximum stacksize for task 0: unlimited
  | Maximum stacksize for task 1: unlimited
  | Maximum stacksize for task 2: unlimited
  | Maximum stacksize for task 3: unlimited
  | Maximum stacksize for task 4: unlimited
  | Maximum stacksize for task 5: unlimited
  | Maximum stacksize for task 6: unlimited
  | Maximum stacksize for task 7: unlimited
  | Maximum stacksize for task 8: unlimited
  | Maximum stacksize for task 9: unlimited
  | Maximum stacksize for task 10: unlimited
  | Maximum stacksize for task 11: unlimited
  | Maximum stacksize for task 12: unlimited
  | Maximum stacksize for task 13: unlimited
  | Maximum stacksize for task 14: unlimited
  | Maximum stacksize for task 15: unlimited
  | Maximum stacksize for task 16: unlimited
  | Maximum stacksize for task 17: unlimited
  | Maximum stacksize for task 18: unlimited
  | Maximum stacksize for task 19: unlimited
  | Maximum stacksize for task 20: unlimited
  | Maximum stacksize for task 21: unlimited
  | Maximum stacksize for task 22: unlimited
  | Maximum stacksize for task 23: unlimited
  | Maximum stacksize for task 24: unlimited
  | Maximum stacksize for task 25: unlimited
  | Maximum stacksize for task 26: unlimited
  | Maximum stacksize for task 27: unlimited
  | Maximum stacksize for task 28: unlimited
  | Maximum stacksize for task 29: unlimited
  | Maximum stacksize for task 30: unlimited
  | Maximum stacksize for task 31: unlimited
  | Current stacksize for task 0: unlimited
  | Current stacksize for task 1: unlimited
  | Current stacksize for task 2: unlimited
  | Current stacksize for task 3: unlimited
  | Current stacksize for task 4: unlimited
  | Current stacksize for task 5: unlimited
  | Current stacksize for task 6: unlimited
  | Current stacksize for task 7: unlimited
  | Current stacksize for task 8: unlimited
  | Current stacksize for task 9: unlimited
  | Current stacksize for task 10: unlimited
  | Current stacksize for task 11: unlimited
  | Current stacksize for task 12: unlimited
  | Current stacksize for task 13: unlimited
  | Current stacksize for task 14: unlimited
  | Current stacksize for task 15: unlimited
  | Current stacksize for task 16: unlimited
  | Current stacksize for task 17: unlimited
  | Current stacksize for task 18: unlimited
  | Current stacksize for task 19: unlimited
  | Current stacksize for task 20: unlimited
  | Current stacksize for task 21: unlimited
  | Current stacksize for task 22: unlimited
  | Current stacksize for task 23: unlimited
  | Current stacksize for task 24: unlimited
  | Current stacksize for task 25: unlimited
  | Current stacksize for task 26: unlimited
  | Current stacksize for task 27: unlimited
  | Current stacksize for task 28: unlimited
  | Current stacksize for task 29: unlimited
  | Current stacksize for task 30: unlimited
  | Current stacksize for task 31: unlimited
 
  Consistency checks for the contents of control.in are next.
 
  MPI_IN_PLACE appears to work with this MPI implementation.
  | Keeping use_mpi_in_place .true. (see manual).
  Target number of points in a grid batch is not set. Defaulting to  100
  Method for grid partitioning is not set. Defaulting to parallel hash+maxmin partitioning.
  Batch size limit is not set. Defaulting to    200
  By default, will store active basis functions for each batch.
  If in need of memory, prune_basis_once .false. can be used to disable this option.
  communication_type for Hartree potential was not specified.
  Defaulting to calc_hartree .
  Pulay mixer: Number of initial linear mixing iterations not set.
  Defaulting to    0 iterations.
  Work space size for distributed Hartree potential not set.
  Defaulting to   0.200000E+03 MB.
  Algorithm-dependent basis array size parameters:
  | n_max_pulay                         :       10
  Presetting      1001 iterations before the initial mixing cycle
  is restarted anyway using the sc_init_iter criterion / keyword.
  Presetting a factor      1.000 between actual scf density residual
  and density convergence criterion sc_accuracy_rho below which sc_init_iter
  takes no effect.
  Geometry relaxation not requested: no relaxation will be performed.
  Analytical stress will be computed.
  Analytical stress calculation: Only the upper triangle is calculated.
                                 Final output is symmetrized.
  Analytical stress calculation: scf convergence accuracy of stress not set.
                                 Analytical stress self-consistency will not be checked explicitly.
                                 Be sure to set other criteria like sc_accuracy_rho tight enough.
  Forces evaluation will include force correction term due to incomplete self-consistency (default).
  Handling of forces: Unphysical translation and rotation will be removed from forces.
  No accuracy limit for integral partition fn. given. Defaulting to  0.1000E-14.
  No threshold value for u(r) in integrations given. Defaulting to  0.1000E-05.
  No threshold value for occupation numbers given. Defaulting to  0.0000E+00.
  No accuracy for fermi level given. Defaulting to  0.1000E-19.
  Maximum # of iterations to find E_F not set. Defaulting to  200.
  Preferred method for the eigenvalue solver ('KS_method') not specified in 'control.in'.
  Defaulting to serial version, LAPACK (via ELSI), since more k-points than CPUs available.
  Will not use alltoall communication since running on < 1024 CPUs.
  Threshold for basis singularities not set.
  Default threshold for basis singularities:  0.1000E-04
  partition_type (choice of integration weights) for integrals was not specified.
  | Using a version of the partition function of Stratmann and coworkers ('stratmann_sparse').
  | At each grid point, the set of atoms used to build the partition table is smoothly restricted to
  | only those atoms whose free-atom density would be non-zero at that grid point.
  Partitioning for Hartree potential was not defined. Using partition_type for integrals.
  | Adjusted default value of keyword multip_moments_threshold to:       0.10000000E-11
  | This value may affect high angular momentum components of the Hartree potential in periodic systems.
  Angular momentum expansion for Kerker preconditioner not set explicitly.
  | Using default value of   0
  No explicit requirement for turning off preconditioner.
  | By default, it will be turned off when the charge convergence reaches
  | sc_accuracy_rho  =   0.100000E-04
  | sc_accuracy_eev  =   0.100000E-04
  | sc_accuracy_etot =   0.100000E-04
  No special mixing parameter while Kerker preconditioner is on.
  Using default: charge_mix_param =     0.0100.
  No q(lm)/r^(l+1) cutoff set for long-range Hartree potential.
  | Using default value of  0.100000E-09 .
  | Verify using the multipole_threshold keyword.
  Defaulting to new monopole extrapolation.
  Density update method: automatic selection selected.
  Using density matrix based charge density update.
  Using density matrix based charge density update.
  Using packed matrix style: index .
  Defaulting to use time-reversal symmetry for k-point grid.
  Set 'collect_eigenvectors' to be '.true.' for all serial calculations. This is mandatory.
  Set 'collect_eigenvectors' to be '.true.' for KS_method lapack_fast and serial.
 
  Consistency checks for the contents of geometry.in are next.
 

  Range separation radius for Ewald summation (hartree_convergence_parameter):      4.67419268 bohr.
  Number of empty states per atom not set in control.in - providing a guess from actual geometry.
  | Total number of empty states used during s.c.f. cycle:       56
  If you use a very high smearing, use empty_states (per atom!) in control.in to increase this value.

  Structure-dependent array size parameters: 
  | Maximum number of distinct radial functions  :       32
  | Maximum number of basis functions            :      740
  | Number of Kohn-Sham states (occupied + empty):      236
------------------------------------------------------------

************************** W A R N I N G *******************************
* You are using the PIMD wrapper. Specifications and positions         *
* in geometry.in will be IGNORED - all is received from the wrapper.   *
* Please make sure species are declared in the same order in           *
* geometry.in and wrapper input.                                       *
************************************************************************


------------------------------------------------------------
          Preparing all fixed parts of the calculation.
------------------------------------------------------------
  Determining machine precision:
    2.225073858507201E-308
  Setting up grids for atomic and cluster calculations.

  Creating wave function, potential, and density for free atoms.
  Runtime choices for atomic solver:
  | atomic solver xc        : PBE
  | compute density gradient: 1
  | compute kinetic density : F

  Species: Si

  List of occupied orbitals and eigenvalues:
    n    l              occ      energy [Ha]    energy [eV]
    1    0           2.0000       -65.775969     -1789.8552
    2    0           2.0000        -5.123557      -139.4191
    3    0           2.0000        -0.394463       -10.7339
    2    1           6.0000        -3.508175       -95.4623
    3    1           2.0000        -0.147003        -4.0002


  Species: Sr

  List of occupied orbitals and eigenvalues:
    n    l              occ      energy [Ha]    energy [eV]
    1    0           2.0000      -596.641486    -16235.4409
    2    0           2.0000       -79.552268     -2164.7273
    3    0           2.0000       -12.269763      -333.8773
    4    0           2.0000        -1.501803       -40.8661
    5    0           2.0000        -0.128838        -3.5059
    2    1           6.0000       -70.668145     -1922.9781
    3    1           6.0000        -9.413959      -256.1669
    4    1           6.0000        -0.837478       -22.7889
    3    2          10.0000        -4.705114      -128.0327


  Adding cutoff potential to free-atom effective potential.
  Creating fixed part of basis set: Ionic, confined, hydrogenic.
 
  Si                   ion:

  List of free ionic orbitals and eigenvalues:
    n    l      energy [Ha]    energy [eV]
    1    0       -66.641157     -1813.3982
    2    0        -5.964274      -162.2962
    3    0        -1.073878       -29.2217
    2    1        -4.350005      -118.3697
    3    1        -0.776571       -21.1316


  List of ionic basis orbitals and eigenvalues:
    n    l      energy [Ha]    energy [eV]    outer radius [A]
    3    0        -1.073870       -29.2215       4.534782

 
  Si                   hydrogenic:
 
  List of hydrogenic basis orbitals: 
    n    l      effective z      eigenvalue [eV]  inner max. [A]     outer max. [A]     outer radius [A]   
    3    2         4.200000       -26.6668           1.139231           1.139231           5.315897
    2    1         1.400000        -6.6027           1.490786           1.490786           5.447472
    4    3         6.200000       -32.6870           1.368518           1.368518           5.381283
    3    2         9.000000      -122.4512           0.527387           0.527387           3.181181
    5    4         9.400000       -48.0877           1.402391           1.402391           5.251306
    4    1         4.000000       -12.9760           0.374516           2.992555           5.514476
    1    0         0.650000        -5.7375           0.809009           0.809009           5.447472
 
 
  Sr                   ion:

  List of free ionic orbitals and eigenvalues:
    n    l      energy [Ha]    energy [eV]
    1    0      -596.882744    -16242.0059
    2    0       -79.789776     -2171.1903
    3    0       -12.506389      -340.3162
    4    0        -1.735484       -47.2249
    5    0        -0.306751        -8.3471
    2    1       -70.905624     -1929.4402
    3    1        -9.650538      -262.6045
    4    1        -1.069688       -29.1077
    3    2        -4.941615      -134.4682


  List of ionic basis orbitals and eigenvalues:
    n    l      energy [Ha]    energy [eV]    outer radius [A]
    4    2        -0.249618        -6.7924       6.983647
    5    1        -0.199007        -5.4153       7.423838
    5    0        -0.306732        -8.3466       7.244526

 
  Sr                   hydrogenic:
 
  List of hydrogenic basis orbitals: 
    n    l      effective z      eigenvalue [eV]  inner max. [A]     outer max. [A]     outer radius [A]   
    4    3         5.600000       -26.6669           1.515050           1.515050           6.030750
    5    4         7.400000       -29.8016           1.797862           1.797862           6.332983
    4    2         4.400000       -16.4617           0.812186           2.562857           7.333634
    3    1         3.300000       -16.4625           0.480129           1.934692           6.898792
    6    5        10.400000       -40.8773           1.842361           1.842361           6.104929
    5    0         4.900000       -12.9016           0.078630           4.230613           7.515151
    5    3        13.200000       -94.8262           0.486035           1.308326           4.388651
 
  Creating atomic-like basis functions for current effective potential.

  Species Si                  :

  List of atomic basis orbitals and eigenvalues:
    n    l      energy [Ha]    energy [eV]    outer radius [A]
    1    0       -65.775969     -1789.8552       0.789468
    2    0        -5.123557      -139.4191       2.815114
    3    0        -0.394463       -10.7339       5.315897
    2    1        -3.508175       -95.4623       3.259919
    3    1        -0.147003        -4.0002       5.447472


  Species Sr                  :

  List of atomic basis orbitals and eigenvalues:
    n    l      energy [Ha]    energy [eV]    outer radius [A]
    1    0      -596.641486    -16235.4409       0.273611
    2    0       -79.552268     -2164.7273       0.773426
    3    0       -12.269763      -333.8773       1.934692
    4    0        -1.501803       -40.8661       5.271931
    5    0        -0.128838        -3.5059       7.423838
    2    1       -70.668145     -1922.9781       0.792569
    3    1        -9.413959      -256.1669       2.133466
    4    1        -0.837478       -22.7889       6.569557
    3    2        -4.705114      -128.0327       2.791830

  Assembling full basis from fixed parts.
  | Species Si :   atomic orbital   1 s accepted.
  | Species Si :   atomic orbital   2 s accepted.
  | Species Si :    ionic orbital   3 s accepted.
  | Species Si :   atomic orbital   3 s accepted.
  | Species Si :    hydro orbital   1 s accepted.
  | Species Si :   atomic orbital   2 p accepted.
  | Species Si :   atomic orbital   3 p accepted.
  | Species Si :    hydro orbital   2 p accepted.
  | Species Si :    hydro orbital   4 p accepted.
  | Species Si :    hydro orbital   3 d accepted.
  | Species Si :    hydro orbital   3 d accepted.
  | Species Si :    hydro orbital   4 f accepted.
  | Species Si :    hydro orbital   5 g accepted.
  | Species Sr :   atomic orbital   1 s accepted.
  | Species Sr :   atomic orbital   2 s accepted.
  | Species Sr :   atomic orbital   3 s accepted.
  | Species Sr :   atomic orbital   4 s accepted.
  | Species Sr :    ionic orbital   5 s accepted.
  | Species Sr :   atomic orbital   5 s accepted.
  | Species Sr :    hydro orbital   5 s accepted.
  | Species Sr :   atomic orbital   2 p accepted.
  | Species Sr :   atomic orbital   3 p accepted.
  | Species Sr :   atomic orbital   4 p accepted.
  | Species Sr :    hydro orbital   3 p accepted.
  | Species Sr :    ionic orbital   5 p accepted.
  | Species Sr :   atomic orbital   3 d accepted.
  | Species Sr :    ionic orbital   4 d accepted.
  | Species Sr :    hydro orbital   4 d accepted.
  | Species Sr :    hydro orbital   5 f accepted.
  | Species Sr :    hydro orbital   4 f accepted.
  | Species Sr :    hydro orbital   5 g accepted.
  | Species Sr :    hydro orbital   6 h accepted.
 
  Basis size parameters after reduction:
  | Total number of radial functions:       32
  | Total number of basis functions :      740
 
  Per-task memory consumption for arrays in subroutine allocate_ext:
  |          11.716672MB.
  Testing on-site integration grid accuracy.
  |  Species  Function  <phi|h_atom|phi> (log., in eV)  <phi|h_atom|phi> (rad., in eV)
           1        1              -1789.8551969286              -1789.8551654044
           1        2               -139.4190834032               -139.4190829157
           1        3                -10.3851269365                -10.3851269662
           1        4                  5.2748560831                  5.2746879749
           1        5                 39.0599257024                 39.0568816599
           1        6                -95.4622899789                -95.4622898460
           1        7                 -4.0035070090                 -4.0036255172
           1        8                  4.8352944695                  4.8334925957
           1        9                 23.1173462136                 23.1137586236
           1       10                 36.0281341134                 36.0281341202
           1       11                 21.0467703617                 21.0467633086
           1       12                 19.1745287805                 19.1745199964
           1       13                 35.6867439284                 35.6867482281
           2       14             -16235.4408919425             -16235.4398416882
           2       15              -2164.7273482214              -2164.7273293972
           2       16               -333.8772523306               -333.8772501498
           2       17                -40.8661455718                -40.8661451360
           2       18                 -3.3856175139                 -3.3855121583
           2       19                  2.0196155792                  2.0282708893
           2       20                 12.0364914133                 12.0551514786
           2       21              -1922.9780729292              -1922.9780706453
           2       22               -256.1668689848               -256.1668678256
           2       23                -22.7889348997                -22.7889346524
           2       24                  0.1214864787                  0.1214232685
           2       25                  4.2936609679                  4.3137263521
           2       26               -128.0326755105               -128.0326751928
           2       27                 -1.0875334126                 -1.0876279698
           2       28                  4.8813800355                  4.8817819482
           2       29                 46.1056776989                 46.1056775149
           2       30                 47.5269438793                 47.5269594456
           2       31                 19.5859667931                 19.5859333627
           2       32                 31.4215498616                 31.4215669544

  Preparing densities etc. for the partition functions (integrals / Hartree potential).

  Preparations completed.
  max(cpu_time)          :      0.610 s.
  Wall clock time (cpu1) :      0.611 s.
------------------------------------------------------------

  Initializing index lists of integration centers etc. from given atomic structure:
  Mapping all atomic coordinates to central unit cell.

  Initializing the k-points
  Using symmetry for reducing the k-points
  | k-points reduced from:      420 to      212
  | Number of k-points                             :       212
  The eigenvectors in the calculations are COMPLEX.
  | K-points in task   0:         6
  | K-points in task   1:         7
  | K-points in task   2:         7
  | K-points in task   3:         7
  | K-points in task   4:         7
  | K-points in task   5:         7
  | K-points in task   6:         7
  | K-points in task   7:         7
  | K-points in task   8:         7
  | K-points in task   9:         7
  | K-points in task  10:         7
  | K-points in task  11:         7
  | K-points in task  12:         7
  | K-points in task  13:         7
  | K-points in task  14:         7
  | K-points in task  15:         7
  | K-points in task  16:         7
  | K-points in task  17:         7
  | K-points in task  18:         7
  | K-points in task  19:         7
  | K-points in task  20:         7
  | K-points in task  21:         6
  | K-points in task  22:         6
  | K-points in task  23:         6
  | K-points in task  24:         6
  | K-points in task  25:         6
  | K-points in task  26:         6
  | K-points in task  27:         6
  | K-points in task  28:         6
  | K-points in task  29:         6
  | K-points in task  30:         6
  | K-points in task  31:         6
  | Number of basis functions in the Hamiltonian integrals :     10152
  | Number of basis functions in a single unit cell        :       740
  | Number of centers in hartree potential         :      1490
  | Number of centers in hartree multipole         :       950
  | Number of centers in electron density summation:       736
  | Number of centers in basis integrals           :       806
  | Number of centers in integrals                 :       258
  | Number of centers in hamiltonian               :       806
  | Consuming        384 KiB for k_phase.
  | Number of super-cells (origin) [n_cells]                     :         539
  | Number of super-cells (after PM_index) [n_cells]             :         116
  | Number of super-cells in hamiltonian [n_cells_in_hamiltonian]:         116
  | Size of matrix packed + index [n_hamiltonian_matrix_size] :     4404645
* Skipping the SCF initialization for now - done inside wrapper      *
  @ DRIVER MODE: Connecting to host:port localhost       12347
  @ DRIVER MODE: Message from server: STATUS      
  @ DRIVER MODE: Message from server: POSDATA     
  @ DRIVER MODE: Received positions 

  Initializing index lists of integration centers etc. from given atomic structure:
  Mapping all atomic coordinates to central unit cell.

  Initializing the k-points
  Using symmetry for reducing the k-points
  | k-points reduced from:      420 to      212
  | Number of k-points                             :       212
  The eigenvectors in the calculations are COMPLEX.
  | K-points in task   0:         6
  | K-points in task   1:         7
  | K-points in task   2:         7
  | K-points in task   3:         7
  | K-points in task   4:         7
  | K-points in task   5:         7
  | K-points in task   6:         7
  | K-points in task   7:         7
  | K-points in task   8:         7
  | K-points in task   9:         7
  | K-points in task  10:         7
  | K-points in task  11:         7
  | K-points in task  12:         7
  | K-points in task  13:         7
  | K-points in task  14:         7
  | K-points in task  15:         7
  | K-points in task  16:         7
  | K-points in task  17:         7
  | K-points in task  18:         7
  | K-points in task  19:         7
  | K-points in task  20:         7
  | K-points in task  21:         6
  | K-points in task  22:         6
  | K-points in task  23:         6
  | K-points in task  24:         6
  | K-points in task  25:         6
  | K-points in task  26:         6
  | K-points in task  27:         6
  | K-points in task  28:         6
  | K-points in task  29:         6
  | K-points in task  30:         6
  | K-points in task  31:         6
  | Number of basis functions in the Hamiltonian integrals :     10152
  | Number of basis functions in a single unit cell        :       740
  | Number of centers in hartree potential         :      1490
  | Number of centers in hartree multipole         :       950
  | Number of centers in electron density summation:       736
  | Number of centers in basis integrals           :       806
  | Number of centers in integrals                 :       258
  | Number of centers in hamiltonian               :       806
  | Consuming        384 KiB for k_phase.
  | Number of super-cells (origin) [n_cells]                     :         539
  | Number of super-cells (after PM_index) [n_cells]             :         116
  | Number of super-cells in hamiltonian [n_cells_in_hamiltonian]:         116
  | Size of matrix packed + index [n_hamiltonian_matrix_size] :     4404645

------------------------------------------------------------
          Begin self-consistency loop: Initialization.

          Date     :  20221120, Time     :  032511.496
------------------------------------------------------------
  | Estimated reciprocal-space cutoff momentum G_max:         2.04768163 bohr^-1 .
  | Reciprocal lattice points for long-range Hartree potential:     382
  Partitioning the integration grid into batches with parallel hashing+maxmin method.
  | Number of batches:     4102
  | Maximal batch size:     116
  | Minimal batch size:      50
  | Average batch size:      70.602
  | Standard deviation of batch sizes:      18.586

  Integration load balanced across    32 MPI tasks.
  Work distribution over tasks is as follows:
  Task     0 has       9020 integration points.
  Task     1 has       9051 integration points.
  Task     2 has       9076 integration points.
  Task     3 has       9050 integration points.
  Task     4 has       9079 integration points.
  Task     5 has       9067 integration points.
  Task     6 has       9066 integration points.
  Task     7 has       9082 integration points.
  Task     8 has       9034 integration points.
  Task     9 has       9049 integration points.
  Task    10 has       9066 integration points.
  Task    11 has       9019 integration points.
  Task    12 has       9030 integration points.
  Task    13 has       9020 integration points.
  Task    14 has       9018 integration points.
  Task    15 has       9051 integration points.
  Task    16 has       9068 integration points.
  Task    17 has       9069 integration points.
  Task    18 has       9053 integration points.
  Task    19 has       9035 integration points.
  Task    20 has       9030 integration points.
  Task    21 has       9079 integration points.
  Task    22 has       9023 integration points.
  Task    23 has       9052 integration points.
  Task    24 has       9050 integration points.
  Task    25 has       9057 integration points.
  Task    26 has       9052 integration points.
  Task    27 has       9068 integration points.
  Task    28 has       9032 integration points.
  Task    29 has       9075 integration points.
  Task    30 has       9030 integration points.
  Task    31 has       9057 integration points.
  Initializing partition tables, free-atom densities, potentials, etc. across the integration grid (initialize_grid_storage).
  | initialize_grid_storage: Actual outermost partition radius vs. multipole_radius_free
  | (-- VB: in principle, multipole_radius_free should be larger, hence this output)
  | Species        1: Confinement radius =              6.000000000000000 AA, multipole_radius_free =              6.007157080273940 AA.
  | Species        1: outer_partition_radius set to              6.007157080273940 AA .
  | Species        2: Confinement radius =              8.000000000000000 AA, multipole_radius_free =              8.087107062249377 AA.
  | Species        2: outer_partition_radius set to              8.087107062249377 AA .
  | The sparse table of interatomic distances needs       3051.95 kbyte instead of      5197.09 kbyte of memory.
  | Net number of integration points:   289608
  | of which are non-zero points    :   244476
  | Numerical average free-atom electrostatic potential    :    -14.33637843 eV
  Renormalizing the initial density to the exact electron count on the 3D integration grid.
  | Initial density: Formal number of electrons (from input files) :     360.0000000000
  | Integrated number of electrons on 3D grid     :     359.9995731037
  | Charge integration error                      :      -0.0004268963
  | Normalization factor for density and gradient :       1.0000011858
  Obtaining max. number of non-zero basis functions in each batch (get_n_compute_maxes).
  | Maximal number of non-zero basis functions:     2022 in task     0
  | Maximal number of non-zero basis functions:     2019 in task     1
  | Maximal number of non-zero basis functions:     2046 in task     2
  | Maximal number of non-zero basis functions:     2039 in task     3
  | Maximal number of non-zero basis functions:     2039 in task     4
  | Maximal number of non-zero basis functions:     2033 in task     5
  | Maximal number of non-zero basis functions:     2043 in task     6
  | Maximal number of non-zero basis functions:     2046 in task     7
  | Maximal number of non-zero basis functions:     2042 in task     8
  | Maximal number of non-zero basis functions:     2055 in task     9
  | Maximal number of non-zero basis functions:     2027 in task    10
  | Maximal number of non-zero basis functions:     2056 in task    11
  | Maximal number of non-zero basis functions:     2030 in task    12
  | Maximal number of non-zero basis functions:     2049 in task    13
  | Maximal number of non-zero basis functions:     2028 in task    14
  | Maximal number of non-zero basis functions:     2039 in task    15
  | Maximal number of non-zero basis functions:     2011 in task    16
  | Maximal number of non-zero basis functions:     2034 in task    17
  | Maximal number of non-zero basis functions:     2034 in task    18
  | Maximal number of non-zero basis functions:     2027 in task    19
  | Maximal number of non-zero basis functions:     2051 in task    20
  | Maximal number of non-zero basis functions:     2044 in task    21
  | Maximal number of non-zero basis functions:     2039 in task    22
  | Maximal number of non-zero basis functions:     2035 in task    23
  | Maximal number of non-zero basis functions:     2012 in task    24
  | Maximal number of non-zero basis functions:     2042 in task    25
  | Maximal number of non-zero basis functions:     2053 in task    26
  | Maximal number of non-zero basis functions:     2032 in task    27
  | Maximal number of non-zero basis functions:     2039 in task    28
  | Maximal number of non-zero basis functions:     2057 in task    29
  | Maximal number of non-zero basis functions:     2037 in task    30
  | Maximal number of non-zero basis functions:     2044 in task    31
  Allocating       15.989 MB for KS_eigenvector_complex
  Integrating Hamiltonian matrix: batch-based integration.
  Time summed over all CPUs for integration: real work      234.179 s, elapsed      241.170 s
  Integrating overlap matrix.
  Time summed over all CPUs for integration: real work      196.807 s, elapsed      204.093 s
  Decreasing sparse matrix size:
  | Tolerance:  0.1000E-12
  Hamiltonian matrix
  | Array has  3603440 nonzero elements out of  4404645 elements
  | Sparsity factor is 0.182
  Overlap matrix
  | Array has  3394756 nonzero elements out of  4404645 elements
  | Sparsity factor is 0.229
  New size of hamiltonian matrix:     3614689

  Updating Kohn-Sham eigenvalues and eigenvectors using ELSI and the (modified) LAPACK eigensolver.

  Obtaining occupation numbers and electronic chemical potential using ELSI.
  | Note that, for insulating systems, the printed 'chemical potential' value is not uniquely defined.
  | It can be anywhere in the energy gap, as long as it correctly separates occupied and unoccupied states.
  | In systems with a gap, the physically relevant chemical potential is the VBM or HOMO.

  | Chemical potential (Fermi level):    -6.46461012 eV
  Writing Kohn-Sham eigenvalues.
  K-point:       1 at    0.000000    0.000000    0.000000 (in units of recip. lattice)

  State    Occupation    Eigenvalue [Ha]    Eigenvalue [eV]
      1       2.00000        -596.654960       -16235.80752
      2       2.00000        -596.654960       -16235.80752
      3       2.00000        -596.654960       -16235.80752
      4       2.00000        -596.654960       -16235.80752
      5       2.00000        -596.653061       -16235.75586
      6       2.00000        -596.653061       -16235.75586
      7       2.00000        -596.653061       -16235.75586
      8       2.00000        -596.653061       -16235.75586
      9       2.00000         -79.566125        -2165.10442
     10       2.00000         -79.566125        -2165.10442
     11       2.00000         -79.566125        -2165.10442
     12       2.00000         -79.566125        -2165.10442
     13       2.00000         -79.564208        -2165.05225
     14       2.00000         -79.564208        -2165.05225
     15       2.00000         -79.564208        -2165.05225
     16       2.00000         -79.564208        -2165.05225
     17       2.00000         -70.682010        -1923.35535
     18       2.00000         -70.682010        -1923.35535
     19       2.00000         -70.682010        -1923.35535
     20       2.00000         -70.682010        -1923.35535
     21       2.00000         -70.682007        -1923.35526
     22       2.00000         -70.682007        -1923.35526
     23       2.00000         -70.682007        -1923.35526
     24       2.00000         -70.682006        -1923.35526
     25       2.00000         -70.682005        -1923.35521
     26       2.00000         -70.682005        -1923.35520
     27       2.00000         -70.682005        -1923.35520
     28       2.00000         -70.682005        -1923.35520
     29       2.00000         -70.680099        -1923.30336
     30       2.00000         -70.680099        -1923.30336
     31       2.00000         -70.680099        -1923.30336
     32       2.00000         -70.680099        -1923.30336
     33       2.00000         -70.680092        -1923.30315
     34       2.00000         -70.680092        -1923.30315
     35       2.00000         -70.680092        -1923.30315
     36       2.00000         -70.680091        -1923.30315
     37       2.00000         -70.680091        -1923.30312
     38       2.00000         -70.680091        -1923.30312
     39       2.00000         -70.680091        -1923.30312
     40       2.00000         -70.680091        -1923.30312
     41       2.00000         -65.816525        -1790.95877
     42       2.00000         -65.816525        -1790.95877
     43       2.00000         -65.816525        -1790.95877
     44       2.00000         -65.816525        -1790.95877
     45       2.00000         -12.284503         -334.27834
     46       2.00000         -12.284503         -334.27834
     47       2.00000         -12.284503         -334.27834
     48       2.00000         -12.284503         -334.27834
     49       2.00000         -12.282447         -334.22238
     50       2.00000         -12.282447         -334.22238
     51       2.00000         -12.282447         -334.22238
     52       2.00000         -12.282447         -334.22238
     53       2.00000          -9.428787         -256.57035
     54       2.00000          -9.428787         -256.57035
     55       2.00000          -9.428787         -256.57035
     56       2.00000          -9.428787         -256.57035
     57       2.00000          -9.428749         -256.56932
     58       2.00000          -9.428749         -256.56932
     59       2.00000          -9.428749         -256.56932
     60       2.00000          -9.428749         -256.56932
     61       2.00000          -9.428728         -256.56874
     62       2.00000          -9.428728         -256.56874
     63       2.00000          -9.428728         -256.56874
     64       2.00000          -9.428728         -256.56874
     65       2.00000          -9.426749         -256.51490
     66       2.00000          -9.426749         -256.51490
     67       2.00000          -9.426749         -256.51490
     68       2.00000          -9.426749         -256.51490
     69       2.00000          -9.426665         -256.51261
     70       2.00000          -9.426665         -256.51261
     71       2.00000          -9.426665         -256.51261
     72       2.00000          -9.426665         -256.51261
     73       2.00000          -9.426655         -256.51233
     74       2.00000          -9.426655         -256.51233
     75       2.00000          -9.426655         -256.51233
     76       2.00000          -9.426655         -256.51233
     77       2.00000          -5.167307         -140.60958
     78       2.00000          -5.167307         -140.60958
     79       2.00000          -5.167307         -140.60958
     80       2.00000          -5.167307         -140.60958
     81       2.00000          -4.719998         -128.43768
     82       2.00000          -4.719998         -128.43768
     83       2.00000          -4.719998         -128.43768
     84       2.00000          -4.719998         -128.43768
     85       2.00000          -4.719995         -128.43759
     86       2.00000          -4.719995         -128.43759
     87       2.00000          -4.719995         -128.43759
     88       2.00000          -4.719995         -128.43759
     89       2.00000          -4.719979         -128.43717
     90       2.00000          -4.719979         -128.43717
     91       2.00000          -4.719979         -128.43717
     92       2.00000          -4.719979         -128.43717
     93       2.00000          -4.719949         -128.43636
     94       2.00000          -4.719949         -128.43636
     95       2.00000          -4.719949         -128.43636
     96       2.00000          -4.719949         -128.43636
     97       2.00000          -4.719946         -128.43625
     98       2.00000          -4.719945         -128.43625
     99       2.00000          -4.719945         -128.43625
    100       2.00000          -4.719945         -128.43625
    101       2.00000          -4.717941         -128.38171
    102       2.00000          -4.717941         -128.38171
    103       2.00000          -4.717941         -128.38171
    104       2.00000          -4.717941         -128.38171
    105       2.00000          -4.717930         -128.38141
    106       2.00000          -4.717930         -128.38141
    107       2.00000          -4.717930         -128.38141
    108       2.00000          -4.717930         -128.38141
    109       2.00000          -4.717913         -128.38094
    110       2.00000          -4.717913         -128.38094
    111       2.00000          -4.717913         -128.38094
    112       2.00000          -4.717913         -128.38094
    113       2.00000          -4.717853         -128.37930
    114       2.00000          -4.717853         -128.37930
    115       2.00000          -4.717853         -128.37930
    116       2.00000          -4.717853         -128.37930
    117       2.00000          -4.717852         -128.37929
    118       2.00000          -4.717852         -128.37929
    119       2.00000          -4.717852         -128.37929
    120       2.00000          -4.717852         -128.37929
    121       2.00000          -3.551983          -96.65438
    122       2.00000          -3.551983          -96.65438
    123       2.00000          -3.551983          -96.65438
    124       2.00000          -3.551983          -96.65438
    125       2.00000          -3.551760          -96.64831
    126       2.00000          -3.551760          -96.64831
    127       2.00000          -3.551760          -96.64831
    128       2.00000          -3.551760          -96.64831
    129       2.00000          -3.551589          -96.64367
    130       2.00000          -3.551589          -96.64367
    131       2.00000          -3.551589          -96.64367
    132       2.00000          -3.551589          -96.64366
    133       2.00000          -1.526135          -41.52825
    134       2.00000          -1.525811          -41.51942
    135       2.00000          -1.525175          -41.50212
    136       2.00000          -1.525089          -41.49978
    137       2.00000          -1.521874          -41.41230
    138       2.00000          -1.521724          -41.40822
    139       2.00000          -1.521717          -41.40802
    140       2.00000          -1.521638          -41.40588
    141       2.00000          -0.872888          -23.75248
    142       2.00000          -0.872481          -23.74143
    143       2.00000          -0.872133          -23.73196
    144       2.00000          -0.871979          -23.72774
    145       2.00000          -0.870904          -23.69851
    146       2.00000          -0.869818          -23.66896
    147       2.00000          -0.868955          -23.64547
    148       2.00000          -0.868565          -23.63486
    149       2.00000          -0.868442          -23.63152
    150       2.00000          -0.868103          -23.62230
    151       2.00000          -0.865628          -23.55493
    152       2.00000          -0.865546          -23.55270
    153       2.00000          -0.864822          -23.53300
    154       2.00000          -0.862435          -23.46804
    155       2.00000          -0.860832          -23.42443
    156       2.00000          -0.860700          -23.42085
    157       2.00000          -0.860574          -23.41740
    158       2.00000          -0.860505          -23.41554
    159       2.00000          -0.860461          -23.41434
    160       2.00000          -0.859957          -23.40063
    161       2.00000          -0.859767          -23.39546
    162       2.00000          -0.858572          -23.36294
    163       2.00000          -0.858544          -23.36216
    164       2.00000          -0.858445          -23.35948
    165       2.00000          -0.516128          -14.04455
    166       2.00000          -0.494830          -13.46500
    167       2.00000          -0.493756          -13.43577
    168       2.00000          -0.493596          -13.43144
    169       2.00000          -0.328237           -8.93179
    170       2.00000          -0.327463           -8.91073
    171       2.00000          -0.306163           -8.33112
    172       2.00000          -0.294147           -8.00415
    173       2.00000          -0.291264           -7.92569
    174       1.99999          -0.282572           -7.68918
    175       1.99998          -0.280868           -7.64280
    176       1.99997          -0.278993           -7.59178
    177       1.99996          -0.277259           -7.54460
    178       1.99992          -0.274847           -7.47897
    179       1.99834          -0.263628           -7.17367
    180       1.99780          -0.262606           -7.14587
    181       0.04339          -0.223573           -6.08374
    182       0.00305          -0.213737           -5.81607
    183       0.00003          -0.196112           -5.33648
    184       0.00000          -0.187919           -5.11353
    185       0.00000          -0.183855           -5.00294
    186       0.00000          -0.181601           -4.94161
    187       0.00000          -0.172826           -4.70284
    188       0.00000          -0.169675           -4.61710
    189       0.00000          -0.157016           -4.27263
    190       0.00000          -0.152614           -4.15283
    191       0.00000          -0.149054           -4.05597
    192       0.00000          -0.149006           -4.05465
    193       0.00000          -0.136471           -3.71356
    194       0.00000          -0.133060           -3.62075
    195       0.00000          -0.132926           -3.61709
    196       0.00000          -0.129896           -3.53465
    197       0.00000          -0.127506           -3.46962
    198       0.00000          -0.121194           -3.29787
    199       0.00000          -0.111391           -3.03110
    200       0.00000          -0.108663           -2.95686
    201       0.00000          -0.103007           -2.80296
    202       0.00000          -0.083632           -2.27575
    203       0.00000          -0.081444           -2.21620
    204       0.00000          -0.074162           -2.01804
    205       0.00000          -0.072768           -1.98011
    206       0.00000          -0.068238           -1.85686
    207       0.00000          -0.051379           -1.39809
    208       0.00000          -0.049552           -1.34837
    209       0.00000          -0.046359           -1.26149
    210       0.00000          -0.042176           -1.14767
    211       0.00000          -0.039677           -1.07965
    212       0.00000          -0.034721           -0.94480
    213       0.00000          -0.030214           -0.82216
    214       0.00000          -0.026672           -0.72578
    215       0.00000          -0.026430           -0.71920
    216       0.00000          -0.003552           -0.09666
    217       0.00000          -0.002760           -0.07511
    218       0.00000           0.000325            0.00886
    219       0.00000           0.003365            0.09157
    220       0.00000           0.003656            0.09949
    221       0.00000           0.010184            0.27713
    222       0.00000           0.010717            0.29162
    223       0.00000           0.016734            0.45537
    224       0.00000           0.024341            0.66236
    225       0.00000           0.035670            0.97062
    226       0.00000           0.037677            1.02525
    227       0.00000           0.043187            1.17517
    228       0.00000           0.047753            1.29942
    229       0.00000           0.061463            1.67248
    230       0.00000           0.065307            1.77711
    231       0.00000           0.068281            1.85801
    232       0.00000           0.071171            1.93665
    233       0.00000           0.073394            1.99715
    234       0.00000           0.076674            2.08640
    235       0.00000           0.077179            2.10014
    236       0.00000           0.087827            2.38990

  What follows are estimated values for band gap, HOMO, LUMO, etc.
  | They are estimated on a discrete k-point grid and not necessarily exact.
  | For converged numbers, create a DOS and/or band structure plot on a denser k-grid.

  Highest occupied state (VBM) at     -7.14586603 eV (relative to internal zero)
  | Occupation number:      1.99780267
  | K-point:       1 at    0.000000    0.000000    0.000000 (in units of recip. lattice)

  Lowest unoccupied state (CBM) at    -6.08374323 eV (relative to internal zero)
  | Occupation number:      0.04339300
  | K-point:       1 at    0.000000    0.000000    0.000000 (in units of recip. lattice)

  ESTIMATED overall HOMO-LUMO gap:      1.06212280 eV between HOMO at k-point 1 and LUMO at k-point 1
  | This appears to be a direct band gap.
  The gap value is above 0.2 eV. Unless you are using a very sparse k-point grid,
  this system is most likely an insulator or a semiconductor.
  Calculating total energy contributions from superposition of free atom densities.

  Total energy components:
  | Sum of eigenvalues            :      -15968.78378152 Ha     -434532.71547627 eV
  | XC energy correction          :        -927.22821978 Ha      -25231.16360762 eV
  | XC potential correction       :        1206.59142839 Ha       32833.02329225 eV
  | Free-atom electrostatic energy:      -11109.44854873 Ha     -302303.47604242 eV
  | Hartree energy correction     :           0.00000000 Ha           0.00000000 eV
  | Entropy correction            :          -0.00002700 Ha          -0.00073464 eV
  | ---------------------------
  | Total energy                  :      -26798.86912164 Ha     -729234.33183406 eV
  | Total energy, T -> 0          :      -26798.86914864 Ha     -729234.33256870 eV  <-- do not rely on this value for anything but (periodic) metals
  | Electronic free energy        :      -26798.86917563 Ha     -729234.33330334 eV

  Derived energy quantities:
  | Kinetic energy                :       27459.42813740 Ha      747209.05719679 eV
  | Electrostatic energy          :      -53331.06903926 Ha    -1451212.22542323 eV
  | Energy correction for multipole
  | error in Hartree potential    :           0.00000000 Ha           0.00000000 eV
  | Sum of eigenvalues per atom                           :      -36211.05962302 eV
  | Total energy (T->0) per atom                          :      -60769.52771406 eV  <-- do not rely on this value for anything but (periodic) metals
  | Electronic free energy per atom                       :      -60769.52777528 eV
  Initialize hartree_potential_storage
  Max. number of atoms included in rho_multipole:           12

  End scf initialization - timings             :  max(cpu_time)    wall_clock(cpu1)
  | Time for scf. initialization                :       20.242 s          20.286 s
  | Boundary condition initialization           :        0.240 s           0.240 s
  | Integration                                 :       14.075 s          14.098 s
  | Solution of K.-S. eqns.                     :        4.016 s           4.017 s
  | Grid partitioning                           :        0.449 s           0.450 s
  | Preloading free-atom quantities on grid     :        1.444 s           1.448 s
  | Free-atom superposition energy              :        0.150 s           0.150 s
  | Total energy evaluation                     :        0.001 s           0.001 s

  Partial memory accounting:
  | Current value for overall tracked memory usage:
  |   Minimum:       84.934 MB (on task  0)
  |   Maximum:       87.599 MB (on task  1)
  |   Average:       86.600 MB
  | Peak value for overall tracked memory usage:
  |   Minimum:      136.274 MB (on task 24 after allocating wave)
  |   Maximum:      140.423 MB (on task 11 after allocating wave)
  |   Average:      138.801 MB
  | Largest tracked array allocation so far:
  |   Minimum:       33.605 MB (overlap_matrix on task  0)
  |   Maximum:       33.605 MB (overlap_matrix on task  0)
  |   Average:       33.605 MB
  Note:  These values currently only include a subset of arrays which are explicitly tracked.
  The "true" memory usage will be greater.
------------------------------------------------------------
  Time for density update prior                :  max(cpu_time)    wall_clock(cpu1)
  | self-consistency iterative process          :       11.175 s          11.196 s
------------------------------------------------------------
Convergence:    q app. |  density  | eigen (eV) | Etot (eV) | forces (eV/A) |       CPU time |     Clock time
  SCF    1 :  0.32E-04 |  0.23E+00 |  -0.36E+00 |  0.74E-01 |             . |       23.108 s |       23.157 s
  SCF    2 :  0.26E-01 |  0.22E+00 |  -0.53E+02 |  0.23E+01 |             . |       23.346 s |       23.393 s
  SCF    3 :  0.25E-01 |  0.83E-01 |   0.29E+01 | -0.31E-01 |             . |       23.334 s |       23.380 s
  SCF    4 :  0.37E-01 |  0.79E-01 |  -0.18E+02 |  0.64E-02 |             . |       23.370 s |       23.416 s
  SCF    5 :  0.34E-01 |  0.27E-01 |   0.11E+01 |  0.56E-02 |             . |       23.360 s |       23.409 s
  SCF    6 :  0.15E-01 |  0.26E-01 |  -0.12E+01 |  0.44E-02 |             . |       23.377 s |       23.424 s
  SCF    7 :  0.11E-01 |  0.13E-01 |  -0.32E+01 | -0.20E-02 |             . |       23.370 s |       23.415 s
  SCF    8 : -0.86E-02 |  0.14E-01 |   0.86E+00 |  0.69E-02 |             . |       23.371 s |       23.418 s
  SCF    9 : -0.85E-02 |  0.29E-02 |   0.66E-01 | -0.39E-04 |             . |       23.370 s |       23.416 s
  SCF   10 : -0.65E-02 |  0.29E-02 |   0.53E+00 | -0.51E-03 |             . |       23.351 s |       23.396 s
  SCF   11 : -0.68E-02 |  0.33E-02 |  -0.11E+01 |  0.69E-03 |             . |       23.372 s |       23.418 s
  SCF   12 : -0.49E-02 |  0.13E-02 |  -0.18E+00 |  0.75E-04 |             . |       23.376 s |       23.422 s
  SCF   13 : -0.34E-02 |  0.86E-03 |  -0.28E+00 |  0.12E-03 |             . |       23.360 s |       23.406 s
  SCF   14 : -0.28E-02 |  0.48E-03 |   0.33E-01 | -0.43E-04 |             . |       23.369 s |       23.415 s
  SCF   15 : -0.27E-02 |  0.41E-03 |  -0.19E-01 |  0.58E-05 |             . |       23.372 s |       23.418 s
  SCF   16 : -0.25E-02 |  0.40E-03 |  -0.40E-01 |  0.17E-04 |             . |       23.370 s |       23.416 s
  SCF   17 : -0.19E-02 |  0.36E-03 |  -0.85E-01 |  0.89E-05 |             . |       23.375 s |       23.421 s
  SCF   18 : -0.11E-02 |  0.26E-03 |  -0.10E+00 |  0.84E-05 |             . |       23.377 s |       23.424 s
  SCF   19 : -0.10E-02 |  0.17E-03 |  -0.17E-01 |  0.16E-05 |             . |       23.370 s |       23.416 s
  SCF   20 : -0.89E-03 |  0.16E-03 |  -0.20E-02 |  0.20E-05 |             . |       23.373 s |       23.418 s
  SCF   21 : -0.79E-03 |  0.12E-03 |   0.14E-02 |  0.25E-07 |             . |       23.367 s |       23.412 s
  SCF   22 : -0.68E-03 |  0.94E-04 |   0.16E-04 |  0.31E-06 |             . |       23.375 s |       23.421 s
  SCF   23 : -0.62E-03 |  0.74E-04 |   0.15E-02 |  0.14E-05 |             . |       23.400 s |       23.446 s
  SCF   24 : -0.56E-03 |  0.65E-04 |   0.79E-02 | -0.45E-06 |             . |       23.394 s |       23.440 s
  SCF   25 : -0.55E-03 |  0.58E-04 |   0.95E-02 | -0.69E-06 |             . |       23.376 s |       23.423 s
  SCF   26 : -0.55E-03 |  0.51E-04 |   0.15E-02 |  0.62E-06 |             . |       23.398 s |       23.444 s
  SCF   27 : -0.55E-03 |  0.49E-04 |   0.65E-02 | -0.11E-05 |             . |       23.382 s |       23.428 s
  SCF   28 : -0.59E-03 |  0.46E-04 |   0.16E-01 |  0.68E-06 |             . |       23.385 s |       23.431 s
  SCF   29 : -0.63E-03 |  0.39E-04 |   0.16E-01 |  0.87E-06 |             . |       23.380 s |       23.427 s
  SCF   30 : -0.63E-03 |  0.33E-04 |   0.81E-02 | -0.72E-06 |             . |       23.397 s |       23.443 s
  SCF   31 : -0.63E-03 |  0.30E-04 |   0.46E-02 | -0.61E-06 |             . |       23.396 s |       23.443 s
  SCF   32 : -0.59E-03 |  0.29E-04 |   0.71E-02 | -0.12E-05 |             . |       23.369 s |       23.417 s
  SCF   33 : -0.54E-03 |  0.24E-04 |   0.33E-02 |  0.52E-06 |             . |       23.406 s |       23.453 s
  SCF   34 : -0.49E-03 |  0.17E-04 |   0.22E-02 |  0.60E-06 |             . |       23.383 s |       23.429 s
  SCF   35 : -0.48E-03 |  0.13E-04 |   0.15E-03 |  0.84E-07 |             . |       23.377 s |       23.423 s
  SCF   36 : -0.46E-03 |  0.11E-04 |  -0.12E-03 |  0.70E-07 |             . |       23.374 s |       23.422 s
  SCF   37 : -0.45E-03 |  0.87E-05 |  -0.82E-04 |  0.11E-06 |             . |       23.388 s |       23.434 s
  SCF   38 : -0.45E-03 |  0.84E-05 |   0.16E-03 | -0.11E-06 |             . |       23.366 s |       23.412 s
[...]
  | K-points in task   3:         7
  | K-points in task   4:         7
  | K-points in task   5:         7
  | K-points in task   6:         7
  | K-points in task   7:         7
  | K-points in task   8:         7
  | K-points in task   9:         7
  | K-points in task  10:         7
  | K-points in task  11:         7
  | K-points in task  12:         7
  | K-points in task  13:         7
  | K-points in task  14:         7
  | K-points in task  15:         7
  | K-points in task  16:         7
  | K-points in task  17:         7
  | K-points in task  18:         7
  | K-points in task  19:         7
  | K-points in task  20:         7
  | K-points in task  21:         6
  | K-points in task  22:         6
  | K-points in task  23:         6
  | K-points in task  24:         6
  | K-points in task  25:         6
  | K-points in task  26:         6
  | K-points in task  27:         6
  | K-points in task  28:         6
  | K-points in task  29:         6
  | K-points in task  30:         6
  | K-points in task  31:         6
  | Number of basis functions in the Hamiltonian integrals :     10148
  | Number of basis functions in a single unit cell        :       740
  | Number of centers in hartree potential         :      1490
  | Number of centers in hartree multipole         :       950
  | Number of centers in electron density summation:       736
  | Number of centers in basis integrals           :       806
  | Number of centers in integrals                 :       258
  | Number of centers in hamiltonian               :       806
  | Consuming        384 KiB for k_phase.
  | Number of super-cells (origin) [n_cells]                     :         539
  | Number of super-cells (after PM_index) [n_cells]             :         116
  | Number of super-cells in hamiltonian [n_cells_in_hamiltonian]:         116
  | Size of matrix packed + index [n_hamiltonian_matrix_size] :     4403017
  Partitioning the integration grid into batches with parallel hashing+maxmin method.
  Initializing partition tables, free-atom densities, potentials, etc. across the integration grid (initialize_grid_storage).
  | Species        1: outer_partition_radius set to              6.007157080273940 AA .
  | Species        2: outer_partition_radius set to              8.087107062249377 AA .
  | Net number of integration points:   289608
  | of which are non-zero points    :   244476
  Renormalizing the initial density to the exact electron count on the 3D integration grid.
  | Initial density: Formal number of electrons (from input files) :     360.0000000000
  | Integrated number of electrons on 3D grid     :     359.9995826990
  | Charge integration error                      :      -0.0004173010
  | Normalization factor for density and gradient :       1.0000011592
  Calculating total energy contributions from superposition of free atom densities.
  Initialize hartree_potential_storage
  Max. number of atoms included in rho_multipole:           12
  Integrating overlap matrix.
  Time summed over all CPUs for integration: real work      196.861 s, elapsed      202.985 s
  Orthonormalizing eigenvectors

  End scf reinitialization - timings           :  max(cpu_time)    wall_clock(cpu1)
  | Time for scf. reinitialization              :        9.106 s           9.124 s
  | Boundary condition initialization           :        0.222 s           0.222 s
  | Integration                                 :        6.404 s           6.412 s
  | Grid partitioning                           :        0.446 s           0.447 s
  | Preloading free-atom quantities on grid     :        1.447 s           1.450 s
  | Free-atom superposition energy              :        0.149 s           0.150 s
  | K.-S. eigenvector reorthonormalization      :        0.437 s           0.386 s
------------------------------------------------------------
  Time for density update prior                :  max(cpu_time)    wall_clock(cpu1)
  | self-consistency iterative process          :       11.477 s          11.500 s
------------------------------------------------------------
Convergence:    q app. |  density  | eigen (eV) | Etot (eV) | forces (eV/A) |       CPU time |     Clock time
  SCF    1 : -0.42E-03 |  0.14E+00 |  -0.43E+06 | -0.73E+06 |             . |       23.211 s |       23.261 s
  SCF    2 : -0.42E-03 |  0.13E-04 |   0.36E-04 | -0.11E-06 |             . |       23.607 s |       23.655 s
  SCF    3 : -0.42E-03 |  0.12E-04 |   0.14E-02 | -0.29E-06 |             . |       23.638 s |       23.685 s
  SCF    4 : -0.42E-03 |  0.51E-05 |  -0.62E-03 | -0.11E-07 |             . |       23.628 s |       23.677 s
  SCF    5 : -0.42E-03 |  0.18E-05 |  -0.30E-04 | -0.11E-07 |             . |       23.600 s |       23.647 s
  SCF    6 : -0.42E-03 |  0.18E-05 |  -0.45E-05 |  0.47E-07 |             . |       23.627 s |       23.676 s
  SCF    7 : -0.42E-03 |  0.18E-05 |  -0.14E-04 |  0.55E-07 |      0.57E+00 |       32.627 s |       32.696 s
  SCF    8 : -0.42E-03 |  0.10E-05 |   0.17E-06 | -0.18E-07 |      0.31E-03 |      335.229 s |      335.921 s
  SCF    9 : -0.42E-03 |  0.66E-06 |   0.50E-05 | -0.14E-07 |      0.23E-04 |      336.069 s |      336.758 s

  Total energy components:
  | Sum of eigenvalues            :      -15971.40298535 Ha     -434603.98763884 eV
  | XC energy correction          :        -927.36079429 Ha      -25234.77114356 eV
  | XC potential correction       :        1206.75102171 Ha       32837.36604748 eV
  | Free-atom electrostatic energy:      -11109.46343148 Ha     -302303.88102279 eV
  | Hartree energy correction     :           2.69254407 Ha          73.26785199 eV
  | Entropy correction            :          -0.00032621 Ha          -0.00887659 eV
  | ---------------------------
  | Total energy                  :      -26798.78364534 Ha     -729232.00590572 eV
  | Total energy, T -> 0          :      -26798.78397155 Ha     -729232.01478231 eV  <-- do not rely on this value for anything but (periodic) metals
  | Electronic free energy        :      -26798.78429776 Ha     -729232.02365891 eV

  Derived energy quantities:
  | Kinetic energy                :       27457.48638689 Ha      747156.21947710 eV
  | Electrostatic energy          :      -53328.90923794 Ha    -1451153.45423927 eV
  | Energy correction for multipole
  | error in Hartree potential    :           0.00240764 Ha           0.06551517 eV
  | Sum of eigenvalues per atom                           :      -36216.99896990 eV
  | Total energy (T->0) per atom                          :      -60769.33456519 eV  <-- do not rely on this value for anything but (periodic) metals
  | Electronic free energy per atom                       :      -60769.33530491 eV
  What follows are estimated values for band gap, HOMO, LUMO, etc.
  | They are estimated on a discrete k-point grid and not necessarily exact.
  | For converged numbers, create a DOS and/or band structure plot on a denser k-grid.

  Highest occupied state (VBM) at     -6.46383725 eV (relative to internal zero)
  | Occupation number:      1.91014740
  | K-point:       1 at    0.000000    0.000000    0.000000 (in units of recip. lattice)

  Lowest unoccupied state (CBM) at    -6.11078069 eV (relative to internal zero)
  | Occupation number:      0.76743424
  | K-point:       1 at    0.000000    0.000000    0.000000 (in units of recip. lattice)

  ESTIMATED overall HOMO-LUMO gap:      0.35305656 eV between HOMO at k-point 1 and LUMO at k-point 1
  | This appears to be a direct band gap.
  However, this system has fractional occupation numbers. Since we use a finite k-point grid,
  this material is metallic within the approximate finite broadening function (occupation_type)
  applied to determine the occupation numbers.

  | Chemical Potential                          :    -6.15816074 eV
  | Note that, for insulating systems, the printed 'chemical potential' value is not uniquely defined.
  | It can be anywhere in the energy gap, as long as it correctly separates occupied and unoccupied states.
  | In systems with a gap, the physically relevant chemical potential is the VBM or HOMO.

  Self-consistency cycle converged.

  +-------------------------------------------------------------------+
  |              Analytical stress tensor - Symmetrized               |
  |                  Cartesian components [eV/A**3]                   |
  +-------------------------------------------------------------------+
  |                x                y                z                |
  |                                                                   |
  |  x        -0.00000107       0.00000000       0.00000000           |
  |  y         0.00000000       0.00000074       0.00000000           |
  |  z         0.00000000       0.00000000      -0.00000030           |
  |                                                                   |
  |  Pressure:       0.00000021   [eV/A**3]                           |
  |                                                                   |
  +-------------------------------------------------------------------+
  Removing unitary transformations (pure translations, rotations) from forces on atoms.
  Atomic forces before filtering:
  | Net force on center of mass :  -0.367829E-07  0.251800E-05  0.300370E-05 eV/A
  Atomic forces after filtering:
  | Net force on center of mass :  -0.255212E-21  0.174225E-18  0.174225E-18 eV/A

  Energy and forces in a compact form:
  | Total energy uncorrected      :         -0.729232005905722E+06 eV
  | Total energy corrected        :         -0.729232014782314E+06 eV  <-- do not rely on this value for anything but (periodic) metals
  | Electronic free energy        :         -0.729232023658907E+06 eV
  Total atomic forces (unitary forces cleaned) [eV/Ang]:
  |    1         -0.155948572115242E-06          0.663198078043198E-03         -0.539740945832187E-03
  |    2          0.155033919865656E-06         -0.664830493643480E-03         -0.540376543937470E-03
  |    3          0.714445408134398E-06         -0.663619386352711E-03          0.539276359378715E-03
  |    4          0.105894803977924E-05          0.664406196615348E-03          0.539865478898446E-03
  |    5          0.560504486182051E-06         -0.109498761541151E-03         -0.293775604659395E-03
  |    6         -0.104549648275625E-06          0.111435937894950E-03         -0.294737076588273E-03
  |    7         -0.122169829393138E-05          0.109225251513924E-03          0.294047947149799E-03
  |    8         -0.273516755584803E-06         -0.111490563555227E-03          0.294457749422876E-03
  |    9         -0.117421494087308E-05          0.634183764545281E-03         -0.680859858919626E-04
  |   10          0.641055541974514E-06         -0.633119846846098E-03         -0.670500938671966E-04
  |   11         -0.473903442319963E-07         -0.633133246505945E-03          0.693336101006952E-04
  |   12         -0.152668840923730E-06          0.633243069831910E-03          0.667851058259544E-04

  Removing unitary transformations (pure translations, rotations) from forces on atoms.
  Atomic forces before filtering:
  | Net force on center of mass :  -0.255212E-21  0.174225E-18  0.174225E-18 eV/A
  Atomic forces after filtering:
  | Net force on center of mass :  -0.850707E-22  0.174225E-18  0.130669E-18 eV/A
 ------------------------------------------------------------------------
 Atomic structure that was used in the preceding time step of the wrapper
                         x [A]             y [A]             z [A]
  lattice_vector         5.14223190        0.00000000        0.00000000
  lattice_vector        -0.00000000        8.11834493        0.00000000
  lattice_vector         0.00000000        0.00000000        9.60582481

            atom         1.28555797        2.04818079        8.61987421  Si
            atom         3.85667392        2.01099167        3.81696180  Si
            atom         3.85667392        6.07016413        0.98595061  Si
            atom         1.28555797        6.10735326        5.78886301  Si
            atom         1.28555797        5.28102114        8.85864288  Sr
            atom         3.85667392        6.89649625        4.05573048  Sr
            atom         3.85667392        2.83732379        0.74718193  Sr
            atom         1.28555797        1.22184867        5.55009434  Sr
            atom         1.28555797        4.21168596        3.13762434  Sr
            atom         3.85667392        7.96583143        7.94053675  Sr
            atom         3.85667392        3.90665897        6.46820047  Sr
            atom         1.28555797        0.15251350        1.66528806  Sr
 ------------------------------------------------------------------------
  @ DRIVER MODE: Message from server: STATUS      
  @ DRIVER MODE: Message from server: GETFORCE    
  @ DRIVER MODE: Returning v,forces,stress 

------------------------------------------------------------------------------
  Final output of selected total energy values:

  The following output summarizes some interesting total energy values
  at the end of a run (AFTER all relaxation, molecular dynamics, etc.).

  | Total energy of the DFT / Hartree-Fock s.c.f. calculation      :        -729232.005905722 eV
  | Final zero-broadening corrected energy (caution - metals only) :        -729232.014782314 eV
  | For reference only, the value of 1 Hartree used in FHI-aims is :             27.211384500 eV
  | For reference only, the overall average (free atom contribution
  | + realspace contribution) of the electrostatic potential after
  | s.c.f. convergence is                                          :            -14.241893501 eV

  Before relying on these values, please be sure to understand exactly which
  total energy value is referred to by a given number. Different objects may
  all carry the same name 'total energy'. Definitions:

  Total energy of the DFT / Hartree-Fock s.c.f. calculation:
  | Note that this energy does not include ANY quantities calculated after the
  | s.c.f. cycle, in particular not ANY RPA, MP2, etc. many-body perturbation terms.

  Final zero-broadening corrected energy:
  | For metallic systems only, a broadening of the occupation numbers at the Fermi
  | level can be extrapolated back to zero broadening by an electron-gas inspired
  | formula. For all systems that are not real metals, this value can be
  | meaningless and should be avoided.

------------------------------------------------------------------------------
  Methods described in the following list of references were used in this FHI-aims run.
  If you publish the results, please make sure to cite these reference if they apply.
  FHI-aims is an academic code, and for our developers (often, Ph.D. students
  and postdocs), scientific credit in the community is essential.
  Thank you for helping us!

  For any use of FHI-aims, please cite:

    Volker Blum, Ralf Gehrke, Felix Hanke, Paula Havu, Ville Havu,
    Xinguo Ren, Karsten Reuter, and Matthias Scheffler
    'Ab initio molecular simulations with numeric atom-centered orbitals'
    Computer Physics Communications 180, 2175-2196 (2009)
    http://doi.org/10.1016/j.cpc.2009.06.022


  For the analytical stress tensor used in your run, please cite:

    Franz Knuth, Christian Carbogno, Viktor Atalla, Volker Blum, Matthias Scheffler
    'All-electron formalism for total energy strain derivatives and
    stress tensor components for numeric atom-centered orbitals'
    Computer Physics Communications 190, 33-50 (2015).
    http://doi.org/10.1016/j.cpc.2015.01.003


  The provided symmetry information was generated with SPGlib:

    Atsushi Togo, Yusuke Seto, Dimitar Pashov
    SPGlib 1.7.3 obtained from http://spglib.sourceforge.net
    Copyright (C) 2008 Atsushi Togo


  The ELSI infrastructure was used in your run to solve the Kohn-Sham electronic structure.
  Please check out http://elsi-interchange.org to learn more.
  If scalability is important for your project, please acknowledge ELSI by citing:

    V. W-z. Yu, F. Corsetti, A. Garcia, W. P. Huhn, M. Jacquelin, W. Jia,
    B. Lange, L. Lin, J. Lu, W. Mi, A. Seifitokaldani, A. Vazquez-Mayagoitia,
    C. Yang, H. Yang, and V. Blum
    'ELSI: A unified software interface for Kohn-Sham electronic structure solvers'
    Computer Physics Communications 222, 267-285 (2018).
    http://doi.org/10.1016/j.cpc.2017.09.007


  For the real-space grid partitioning and parallelization used in this calculation, please cite:

    Ville Havu, Volker Blum, Paula Havu, and Matthias Scheffler,
    'Efficient O(N) integration for all-electron electronic structure calculation'
    'using numerically tabulated basis functions'
    Journal of Computational Physics 228, 8367-8379 (2009).
    http://doi.org/10.1016/j.jcp.2009.08.008

  Of course, there are many other important community references, e.g., those cited in the
  above references. Our list is limited to references that describe implementations in the
  FHI-aims code. The reason is purely practical (length of this list) - please credit others as well.

   One or more s.c.f. cycles took more than 50 s.c.f. iterations.
   It might be worth adjusting your convergence settings. For example,
   metals need a larger broadening and a smaller "charge_mix_param" value than semiconductors.

------------------------------------------------------------
          Leaving FHI-aims.
          Date     :  20221120, Time     :  062059.916

          Computational steps:
          | Number of self-consistency cycles          :          191
          | Number of SCF (re)initializations          :           11

          Detailed time accounting                     :  max(cpu_time)    wall_clock(cpu1)
          | Total time                                  :    10527.525 s       10549.778 s
          | Preparation time                            :        0.610 s           0.611 s
          | Boundary condition initalization            :        2.486 s           2.489 s
          | Grid partitioning                           :        4.911 s           4.917 s
          | Preloading free-atom quantities on grid     :       15.895 s          15.932 s
          | Free-atom superposition energy              :        1.650 s           1.656 s
          | Total time for integrations                 :     1520.568 s        1523.475 s
          | Total time for solution of K.-S. equations  :      514.979 s         516.010 s
          | Total time for density & force components   :     7789.724 s        7805.501 s
          | Total time for mixing & preconditioning     :      107.006 s         107.238 s
          | Total time for Hartree multipole update     :        0.890 s           0.898 s
          | Total time for Hartree multipole sum        :      439.262 s         440.241 s
          | Total time for total energy evaluation      :        0.253 s           0.214 s
          | Total time NSC force correction             :      122.022 s         122.290 s
          | Total time for scaled ZORA corrections      :        0.000 s           0.000 s

          Partial memory accounting:
          | Residual value for overall tracked memory usage across tasks:     0.000000 MB (should be 0.000000 MB)
          | Peak values for overall tracked memory usage:
          |   Minimum:      154.277 MB (on task 30 after allocating d_wave)
          |   Maximum:      158.936 MB (on task 13 after allocating d_wave)
          |   Average:      156.572 MB
          | Largest tracked array allocation:
          |   Minimum:       33.605 MB (overlap_matrix on task  0)
          |   Maximum:       33.605 MB (overlap_matrix on task  0)
          |   Average:       33.605 MB
          Note:  These values currently only include a subset of arrays which are explicitly tracked.
          The "true" memory usage will be greater.

          Have a nice day.
------------------------------------------------------------
