  MPI-parallelism will be employed.
------------------------------------------------------------
          Invoking FHI-aims ...
          Version 071914_7
          Compiled on 2016/06/08 at 11:32:45 on host eos02.

          When using FHI-aims, please cite the following reference:

          Volker Blum, Ralf Gehrke, Felix Hanke, Paula Havu,
          Ville Havu, Xinguo Ren, Karsten Reuter, and Matthias Scheffler,
          'Ab Initio Molecular Simulations with Numeric Atom-Centered Orbitals: FHI-aims',
          Computer Physics Communications 180, 2175-2196 (2009)

          For any questions about FHI-aims, please visit the aimsclub website
          with its forums and wiki. Contributions to both the forums and the
          wiki are warmly encouraged - they are for you, and everyone is welcome there.

------------------------------------------------------------

  Date     :  20160715, Time     :  071038.318
  Time zero on CPU 1             :   0.496030000000000E+00  s.
  Internal wall clock time zero  :           237798638.318  s.

  Using       64 parallel tasks.
  Task        0 on host eos309 reporting.
  Task        1 on host eos309 reporting.
  Task        2 on host eos309 reporting.
  Task        3 on host eos309 reporting.
  Task        4 on host eos309 reporting.
  Task        5 on host eos309 reporting.
  Task        6 on host eos309 reporting.
  Task        7 on host eos309 reporting.
  Task        8 on host eos309 reporting.
  Task        9 on host eos309 reporting.
  Task       10 on host eos309 reporting.
  Task       11 on host eos309 reporting.
  Task       12 on host eos309 reporting.
  Task       13 on host eos309 reporting.
  Task       14 on host eos309 reporting.
  Task       15 on host eos309 reporting.
  Task       16 on host eos309 reporting.
  Task       17 on host eos309 reporting.
  Task       18 on host eos309 reporting.
  Task       19 on host eos309 reporting.
  Task       20 on host eos309 reporting.
  Task       21 on host eos309 reporting.
  Task       22 on host eos309 reporting.
  Task       23 on host eos309 reporting.
  Task       24 on host eos309 reporting.
  Task       25 on host eos309 reporting.
  Task       26 on host eos309 reporting.
  Task       27 on host eos309 reporting.
  Task       28 on host eos309 reporting.
  Task       29 on host eos309 reporting.
  Task       30 on host eos309 reporting.
  Task       31 on host eos309 reporting.
  Task       32 on host eos314 reporting.
  Task       33 on host eos314 reporting.
  Task       34 on host eos314 reporting.
  Task       35 on host eos314 reporting.
  Task       36 on host eos314 reporting.
  Task       37 on host eos314 reporting.
  Task       38 on host eos314 reporting.
  Task       39 on host eos314 reporting.
  Task       40 on host eos314 reporting.
  Task       41 on host eos314 reporting.
  Task       42 on host eos314 reporting.
  Task       43 on host eos314 reporting.
  Task       44 on host eos314 reporting.
  Task       45 on host eos314 reporting.
  Task       46 on host eos314 reporting.
  Task       47 on host eos314 reporting.
  Task       48 on host eos314 reporting.
  Task       49 on host eos314 reporting.
  Task       50 on host eos314 reporting.
  Task       51 on host eos314 reporting.
  Task       52 on host eos314 reporting.
  Task       53 on host eos314 reporting.
  Task       54 on host eos314 reporting.
  Task       55 on host eos314 reporting.
  Task       56 on host eos314 reporting.
  Task       57 on host eos314 reporting.
  Task       58 on host eos314 reporting.
  Task       59 on host eos314 reporting.
  Task       60 on host eos314 reporting.
  Task       61 on host eos314 reporting.
  Task       62 on host eos314 reporting.
  Task       63 on host eos314 reporting.

  Performing system and environment tests:
  | Environment variable OMP_NUM_THREADS correctly set to 1.
  | Stacksize not measured: no C compiler
  | Checking for scalapack...
  | Testing pdtran()...
  | All pdtran() tests passed.

  Obtaining array dimensions for all initial allocations:
  
  -----------------------------------------------------------------------
  Parsing control.in (first pass over file, find array dimensions only).
  The contents of control.in will be repeated verbatim below
  unless switched off by setting 'verbatim_writeout .false.' .
  in the first line of control.in .
  -----------------------------------------------------------------------
  
  #=====================================================
  #FHI-aims file: /eos/scratch/biebj/binaries/binaries_unrelaxed_expanded_5pc/pbe/tight/minimal/atomic_zora/4/45_Rh/control.in
  #Created using the Atomic Simulation Environment (ASE)
  #
  #List of parameters used to initialize the calculator:
  #=====================================================
  charge_mix_param                   0.01
  sc_iter_limit                      8000
  relativistic                       atomic_zora scalar
  compute_analytical_stress          .true.
  sc_accuracy_rho                    1e-05
  charge                             0.0
  dos_kgrid_factors                  3 3 3
  xc                                 pbe
  override_relativity                .true.
  k_grid                             6 6 9
  preconditioner                     kerker 1.5
  n_max_pulay                        10
  occupation_type                    fermi 0.1
  spin                               none
  compute_forces                     .true.
  override_illconditioning           .true.
  mixer                              pulay
  sc_accuracy_etot                   1e-05
  sc_accuracy_eev                    1e-05
  sc_accuracy_forces                 0.0001
  output                             atom_proj_dos -20 10 1000 0.01
  output                             dos -20 10 1000 0.01
  output                             quadrupole
  output                             hirshfeld
  output                             band 0.0 0.0 0.0 0.0 0.5 0.0 20 \Gamma X
  output                             band 0.0 0.5 0.0 0.5 0.5 0.0 20 X M
  output                             band 0.5 0.5 0.0 0.0 0.0 0.0 20 M \Gamma
  output                             band 0.0 0.0 0.0 0.0 0.0 0.5 20 \Gamma Z
  output                             band 0.0 0.0 0.5 0.0 0.5 0.5 20 Z R
  output                             band 0.0 0.5 0.5 0.5 0.5 0.5 20 R A
  output                             band 0.5 0.5 0.5 0.0 0.0 0.5 20 A Z
  output                             band 0.0 0.5 0.0 0.0 0.5 0.5 20 X R
  #=======================================================
  
  ################################################################################
  #
  #  FHI-aims code project
  # Volker Blum, Fritz Haber Institute Berlin, 2009
  #
  #  Suggested "tight" defaults for O atom (to be pasted into control.in file)
  #
  ################################################################################
    species        O
  #     global species definitions
      nucleus             8
      mass                15.9994
  #
      l_hartree           6
  #
      cut_pot             4.0  2.0  1.0
      basis_dep_cutoff    1e-4
  #
      radial_base         36 7.0
      radial_multiplier   2
       angular_grids specified
        division   0.1817   50
        division   0.3417  110
        division   0.4949  194
        division   0.6251  302
        division   0.8014  434
  #      division   0.8507  590
  #      division   0.8762  770
  #      division   0.9023  974
  #      division   1.2339 1202
  #      outer_grid 974
        outer_grid  434
  ################################################################################
  #
  #  Definition of "minimal" basis
  #
  ################################################################################
  #     valence basis states
      valence      2  s   2.
      valence      2  p   4.
  #     ion occupancy
      ion_occ      2  s   1.
      ion_occ      2  p   3.
  ################################################################################
  #
  #  Suggested additional basis functions. For production calculations,
  #  uncomment them one after another (the most important basis functions are
  #  listed first).
  #
  #  Constructed for dimers: 1.0 A, 1.208 A, 1.5 A, 2.0 A, 3.0 A
  #
  ################################################################################
  #  "First tier" - improvements: -699.05 meV to -159.38 meV
  #     hydro 2 p 1.8
  #     hydro 3 d 7.6
  #     hydro 3 s 6.4
  #  "Second tier" - improvements: -49.91 meV to -5.39 meV
  #     hydro 4 f 11.6
  #     hydro 3 p 6.2
  #     hydro 3 d 5.6
  #     hydro 5 g 17.6
  #     hydro 1 s 0.75
  #  "Third tier" - improvements: -2.83 meV to -0.50 meV
  #     ionic 2 p auto
  #     hydro 4 f 10.8
  #     hydro 4 d 4.7
  #     hydro 2 s 6.8
  #  "Fourth tier" - improvements: -0.40 meV to -0.12 meV
  #     hydro 3 p 5
  #     hydro 3 s 3.3
  #     hydro 5 g 15.6
  #     hydro 4 f 17.6
  #     hydro 4 d 14
  # Further basis functions - -0.08 meV and below
  #     hydro 3 s 2.1
  #     hydro 4 d 11.6
  #     hydro 3 p 16
  #     hydro 2 s 17.2
  ################################################################################
  #
  # For methods that use the localized form of the "resolution of identity" for
  # the two-electron Coulomb operator (RI_method LVL), particularly Hartree-Fock and
  # hybrid density functional calculations, the highest accuracy can be obtained by
  # uncommenting the line beginning with "for_aux"  below, thus adding an extra g radial
  # function to the construction of the product basis set for the expansion.
  # See Ref. New J. Phys. 17, 093020 (2015) for more information, particularly Figs. 1 and 6.
  #
  ################################################################################
  #
  # for_aux hydro 5 g 6.0
  ################################################################################
  #
  #  FHI-aims code project
  # Volker Blum, Fritz Haber Institute Berlin, 2009
  #
  #  Suggested "tight" defaults for Rh atom (to be pasted into control.in file)
  #
  ################################################################################
    species        Rh
  #     global species definitions
      nucleus             45
      mass                102.90550
  #
      l_hartree           6
  #
      cut_pot             4.0  2.0  1.0
      basis_dep_cutoff    1e-4
  #
      radial_base         61 7.0
      radial_multiplier   2
      angular_grids specified
        division   0.3382   50
        division   0.6902  110
        division   1.0248  194
        division   1.2291  302
        division   1.7390  434
  #      division   1.9255  590
  #      division   1.9931  770
  #      division   2.0280  974
  #      division   2.7218 1202
  #      outer_grid   974
        outer_grid  434
  ################################################################################
  #
  #  Definition of "minimal" basis
  #
  ################################################################################
  #     valence basis states
      valence      5  s   1.
      valence      4  p   6.
      valence      4  d   8.
  #     ion occupancy
      ion_occ     5  s   0.
      ion_occ     4  p   6.
      ion_occ     4  d   7.
  ################################################################################
  #
  #  Suggested additional basis functions. For production calculations,
  #  uncomment them one after another (the most important basis functions are
  #  listed first).
  #
  #  Constructed for dimers: 1.80 A, 2.10 A, 2.50 A, 3.00 A, 4.00 A
  #
  ################################################################################
  #  "First tier"  - max. impr. -246.65  meV, min. impr. -25.24 meV
  #     hydro 4 f 8.6
  #     ionic 5 p auto
  #     ionic 4 d auto
  #     hydro 5 g 11.6
  #     hydro 3 s 2.5
  #  "Second tier" - max. impr. -10.97 meV, min. impr. -0.96 meV
  #     hydro 4 f 21.2
  #     hydro 6 h 16
  #     hydro 5 f 8.2
  #     hydro 4 d 4.1
  #     hydro 3 p 3.3
  #     hydro 5 g 10.4
  #     hydro 5 s 9
  #  "Third tier"  - max. impr. -0.62 meV, min. impr. -0.16 meV
  #     hydro 5 f 20
  #     hydro 3 d 2.4
  #     hydro 6 h 14.8
  #     hydro 3 s 3.2
  #     hydro 4 f 45.2
  #     hydro 5 p 10.81
  #  "Fourth tier"  - max. impr. -0.15 meV, min. impr. -0.06 meV
  #     hydro 5 d 14.8
  #     hydro 4 s 7.2
  #     hydro 4 p 5
  #     hydro 2 p 0.1
  #     hydro 5 g 7.4
  
  -----------------------------------------------------------------------
  Completed first pass over input file control.in .
  -----------------------------------------------------------------------
  
  
  -----------------------------------------------------------------------
  Parsing geometry.in (first pass over file, find array dimensions only).
  The contents of geometry.in will be repeated verbatim below
  unless switched off by setting 'verbatim_writeout .false.' .
  in the first line of geometry.in .
  -----------------------------------------------------------------------
  
  #=======================================================
  #FHI-aims file: /eos/scratch/biebj/binaries/binaries_unrelaxed_expanded_5pc/pbe/tight/minimal/atomic_zora/4/45_Rh/geometry.in
  #Created using the Atomic Simulation Environment (ASE)
  #=======================================================
  lattice_vector 4.5626032457418777 0.0000000000000000 0.0000000000000000
  lattice_vector 0.0000000000000003 4.5626032457418777 0.0000000000000000
  lattice_vector 0.0000000000000002 0.0000000000000002 3.1406647425578971
  atom 1.4007191964427563 1.4007191964427563 0.0000000000000000 O
  atom 3.1618840492991214 3.1618840492991214 0.0000000000000000 O
  atom 0.8805824264281826 3.6820208193136947 1.5703323712789485 O
  atom 3.6820208193136947 0.8805824264281824 1.5703323712789485 O
  atom 0.0000000000000000 0.0000000000000000 0.0000000000000000 Rh
  atom 2.2813016228709388 2.2813016228709388 1.5703323712789485 Rh
  
  -----------------------------------------------------------------------
  Completed first pass over input file geometry.in .
  -----------------------------------------------------------------------
  

  Basic array size parameters:
  | Number of species                 :        2
  | Number of atoms                   :        6
  | Number of lattice vectors         :        3
  | Max. basis fn. angular momentum   :        2
  | Max. atomic/ionic basis occupied n:        5
  | Max. number of basis fn. types    :        1
  | Max. radial fns per species/type  :       10
  | Max. logarithmic grid size        :     1442
  | Max. radial integration grid size :      123
  | Max. angular integration grid size:      434
  | Max. angular grid division number :        8
  | Radial grid for Hartree potential :     1442
  | Number of spin channels           :        1

------------------------------------------------------------
          Reading file control.in.
------------------------------------------------------------
  Charge density mixing - mixing parameter:     0.0100
  Maximum number of s.-c. iterations  :  8000
  Scalar relativistic treatment of kinetic energy: on-site free-atom approximation to ZORA.
  Convergence accuracy of self-consistent charge density: 0.1000E-04
  Charge =   0.000000E+00: Neutral system requested explicitly.
  Found k-point grid multipliers for perturbative DOS :         3         3         3
  XC: Using PBE gradient-corrected functionals.
  override_relativity: Explicitly overriding any built-in relativity checks.
  If you use this flag, you should really know what you are doing.
  Found k-point grid:         6         6         9
  Using Kerker preconditioning with damping at q_0 =     0.1500E+01
  Pulay mixing - number of memorized iterations:   10
  Occupation type: Fermi broadening, width =   0.100000E+00 eV.
  Spin treatment: No spin polarisation.
  Forces will be computed.
  override_illconditioning: Explicitly overriding any built-in checks for an ill-conditioned overlap matrix.
  *** WARNING: If you use this flag, you should really know what you are doing.
  *** DO NOT keep this flag set by default in all your control.in files.
  Using pulay charge density mixing.
  Convergence accuracy of total energy: 0.1000E-04
  Convergence accuracy of sum of eigenvalues: 0.1000E-04
  Convergence accuracy of forces: 0.1000E-03
  Calculating atom-projected density of states with
  | energy interval :-20.000000 10.000000
  | points & broadening :  1000  0.010000
  Calculating density of states with
  | energy interval :-20.000000 10.000000
  | points & broadening :  1000  0.010000
  quadrupole moment will be written out.
  Hirshfeld charge analysis will be performed.

  Plot band    1
  | begin  0.000000  0.000000  0.000000
  | end    0.000000  0.500000  0.000000
  | number of points:   20

  Plot band    2
  | begin  0.000000  0.500000  0.000000
  | end    0.500000  0.500000  0.000000
  | number of points:   20

  Plot band    3
  | begin  0.500000  0.500000  0.000000
  | end    0.000000  0.000000  0.000000
  | number of points:   20

  Plot band    4
  | begin  0.000000  0.000000  0.000000
  | end    0.000000  0.000000  0.500000
  | number of points:   20

  Plot band    5
  | begin  0.000000  0.000000  0.500000
  | end    0.000000  0.500000  0.500000
  | number of points:   20

  Plot band    6
  | begin  0.000000  0.500000  0.500000
  | end    0.500000  0.500000  0.500000
  | number of points:   20

  Plot band    7
  | begin  0.500000  0.500000  0.500000
  | end    0.000000  0.000000  0.500000
  | number of points:   20

  Plot band    8
  | begin  0.000000  0.500000  0.000000
  | end    0.000000  0.500000  0.500000
  | number of points:   20
 
  Reading configuration options for species O                   .
  | Found nuclear charge :   8.0000
  | Found atomic mass :    15.9994000000000      amu
  | Found l_max for Hartree potential  :   6
  | Found cutoff potl. onset [A], width [A], scale factor :    4.00000    2.00000    1.00000
  | Threshold for basis-dependent cutoff potential is   0.100000E-03
  | Found data for basic radial integration grid :    36 points, outermost radius =    7.000 A
  | Found multiplier for basic radial grid :   2
  | Found angular grid specification: user-specified.
  | Specified grid contains     6 separate shells.
  | Check grid settings after all constraints further below.
  | Found free-atom valence shell :  2 s   2.000
  | Found free-atom valence shell :  2 p   4.000
  | No ionic wave fns used. Skipping ion_occ.
  | No ionic wave fns used. Skipping ion_occ.
  Species O                   : Missing cutoff potential type.
  Defaulting to exp(1/x)/(1-x)^2 type cutoff potential.
  Species O : No 'logarithmic' tag. Using default grid for free atom:
  | Default logarithmic grid data [bohr] : 0.1000E-03 0.1000E+03 0.1012E+01
  Species O : On-site basis accuracy parameter (for Gram-Schmidt orthonormalisation) not specified.
  Using default value basis_acc =  0.1000000E-03.
  Species O                   : Using default innermost maximum threshold i_radial=  2 for radial functions.
  Species O                   : Default cutoff onset for free atom density etc. : 0.40000000E+01 AA.
  Species O                   : Basic radial grid will be enhanced according to radial_multiplier =   2, to contain    73 grid points.
 
  Reading configuration options for species Rh                  .
  | Found nuclear charge :  45.0000
  | Found atomic mass :    102.905500000000      amu
  | Found l_max for Hartree potential  :   6
  | Found cutoff potl. onset [A], width [A], scale factor :    4.00000    2.00000    1.00000
  | Threshold for basis-dependent cutoff potential is   0.100000E-03
  | Found data for basic radial integration grid :    61 points, outermost radius =    7.000 A
  | Found multiplier for basic radial grid :   2
  | Found angular grid specification: user-specified.
  | Specified grid contains     6 separate shells.
  | Check grid settings after all constraints further below.
  | Found free-atom valence shell :  5 s   1.000
  | Found free-atom valence shell :  4 p   6.000
  | Found free-atom valence shell :  4 d   8.000
  | No ionic wave fns used. Skipping ion_occ.
  | No ionic wave fns used. Skipping ion_occ.
  | No ionic wave fns used. Skipping ion_occ.
  Species Rh                  : Missing cutoff potential type.
  Defaulting to exp(1/x)/(1-x)^2 type cutoff potential.
  Species Rh: No 'logarithmic' tag. Using default grid for free atom:
  | Default logarithmic grid data [bohr] : 0.1000E-03 0.1000E+03 0.1012E+01
  Species Rh: On-site basis accuracy parameter (for Gram-Schmidt orthonormalisation) not specified.
  Using default value basis_acc =  0.1000000E-03.
  Species Rh                  : Using default innermost maximum threshold i_radial=  2 for radial functions.
  Species Rh                  : Default cutoff onset for free atom density etc. : 0.40000000E+01 AA.
  Species Rh                  : Basic radial grid will be enhanced according to radial_multiplier =   2, to contain   123 grid points.
 
  Finished reading input file 'control.in'. Consistency checks are next.
 
  Target number of points in a grid batch is not set. Defaulting to  100
  Method for grid partitioning is not set. Defaulting to parallel hash+maxmin partitioning.
  Batch size limit is not set. Defaulting to    200
  By default, will store active basis functions for each batch.
  If in need of memory, prune_basis_once .false. can be used to disable this option.
  communication_type for Hartree potential was not specified.
  Defaulting to calc_hartree .
  Pulay mixer: Number of initial linear mixing iterations not set.
  Defaulting to    0 iterations.
  Work space size for distributed Hartree potential not set.
  Defaulting to   0.200000E+03 MB.
  Algorithm-dependent basis array size parameters:
  | n_max_pulay                         :       10
  Geometry relaxation not requested: no relaxation will be performed.
  Analytical stress will be computed.
  Analytical stress calculation: Only the upper triangle is calculated.
                                 Final output is symmetrized.
  Analytical stress calculation: scf convergence accuracy of stress not set.
                                 Analytical stress self-consistency will not be checked explicitly.
                                 Be sure to set other criteria like sc_accuracy_eev tight enough.
  Handling of forces: Unphysical translation and rotation will be removed from forces.
  No accuracy limit for integral partition fn. given. Defaulting to 0.1000E-14.
  No threshold value for u(r) in integrations given. Defaulting to 0.1000E-05.
  No accuracy for occupation numbers given. Defaulting to 0.1000E-07.
  No threshold value for occupation numbers given. Defaulting to 0.0000E+00.
  No accuracy for fermi level given. Defaulting to 0.1000E-19.
  Maximum # of iterations to find E_F not set. Defaulting to  200.
  Preferred method for the eigenvalue solver ('KS_method') not specified in 'control.in'.
  Defaulting to serial version, 'lapack_fast', since more k-points than CPUs available.
  Will not use alltoall communication since running on < 1024 CPUs.
  Threshold for basis singularities not set.
  Default threshold for basis singularities: 0.1000E-04
  partition_type (choice of integration weights) for integrals was not specified.
  | Using a version of the partition function of Stratmann and coworkers ('stratmann_smoother').
  | At each grid point, the set of atoms used to build the partition table is smoothly restricted to
  | only those atoms whose free-atom density would be non-zero at that grid point.
  Partitioning for Hartree potential was not defined. Using partition_type for integrals.
  | Adjusted default value of keyword multip_moments_threshold to:       0.10000000E-11
  | This value may affect high angular momentum components of the Hartree potential in periodic systems.
  Angular momentum expansion for Kerker preconditioner not set explicitly.
  | Using default value of   0
  No explicit requirement for turning off preconditioner.
  | By default, it will be turned off when the charge convergence reaches
  | sc_accuracy_rho  =   0.100000E-04
  | sc_accuracy_eev  =   0.100000E-04
  | sc_accuracy_etot =   0.100000E-04
  No special mixing parameter while Kerker preconditioner is on.
  Using default: charge_mix_param =     0.0100.
  No q(lm)/r^(l+1) cutoff set for long-range Hartree potential.
  | Using default value of  0.100000E-09 .
  | Verify using the multipole_threshold keyword.
  Defaulting to new monopole extrapolation.
  Density update method: automatic selection selected.
  Using density matrix based charge density update.
  Using density matrix based charge density update.
  Using packed matrix style: index .
  Defaulting to use time-reversal symmetry for k-point grid.
------------------------------------------------------------


------------------------------------------------------------
          Reading geometry description geometry.in.
------------------------------------------------------------
  Input structure read successfully.
  The structure contains        6 atoms,  and a total of        122.000 electrons.

  Input geometry:
  | Unit cell:
  |         4.562603         0.000000         0.000000
  |         0.000000         4.562603         0.000000
  |         0.000000         0.000000         3.140665
  | Atomic structure:
  |       Atom                x [A]            y [A]            z [A]
  |    1: Species O              1.400719         1.400719         0.000000
  |    2: Species O              3.161884         3.161884         0.000000
  |    3: Species O              0.880582         3.682021         1.570332
  |    4: Species O              3.682021         0.880582         1.570332
  |    5: Species Rh             0.000000         0.000000         0.000000
  |    6: Species Rh             2.281302         2.281302         1.570332
  |

  | The smallest distance between any two atoms is         1.98091608 AA.
  |
  | The first atom of this pair is atom number                      2 .
  | The second atom of this pair is atom number                     5 .
  | Wigner-Seitz cell of the first atom image           0     0     0 .
  | (The Wigner-Seitz cell of the second atom is 0 0 0  by definition.)

  Quantities derived from the lattice vectors:
  | Reciprocal lattice vector 1:  1.377105  0.000000  0.000000
  | Reciprocal lattice vector 2:  0.000000  1.377105 -0.000000
  | Reciprocal lattice vector 3:  0.000000 -0.000000  2.000591
  | Unit cell volume                               :   0.653803E+02  A^3

  Number of empty states per atom not set in control.in - providing a guess from actual geometry.
  | Total number of empty states used during s.c.f. cycle:       23
  If you use a very high smearing, use empty_states (per atom!) in control.in to increase this value.

  Structure-dependent array size parameters: 
  | Maximum number of distinct radial functions  :       13
  | Maximum number of basis functions            :       68
  | Number of Kohn-Sham states (occupied + empty):       84
------------------------------------------------------------

------------------------------------------------------------
          Preparing all fixed parts of the calculation.
------------------------------------------------------------
  Determining machine precision:
    2.225073858507201E-308
  Setting up grids for atomic and cluster calculations.

  Creating wave function, potential, and density for free atoms.

  Species: O

  List of occupied orbitals and eigenvalues:
    n    l              occ      energy [Ha]    energy [eV]
    1    0           2.0000       -18.927378      -515.0401
    2    0           2.0000        -0.880539       -23.9607
    2    1           4.0000        -0.331811        -9.0290


  Species: Rh

  List of occupied orbitals and eigenvalues:
    n    l              occ      energy [Ha]    energy [eV]
    1    0           2.0000      -869.428054    -23658.3411
    2    0           2.0000      -123.320099     -3355.7106
    3    0           2.0000       -21.947702      -597.2274
    4    0           2.0000        -3.027973       -82.3953
    5    0           1.0000        -0.154963        -4.2168
    2    1           6.0000      -110.480338     -3006.3230
    3    1           6.0000       -17.750584      -483.0180
    4    1           6.0000        -1.849081       -50.3161
    3    2          10.0000       -11.050960      -300.7119
    4    2           8.0000        -0.215636        -5.8678

  Creating fixed part of basis set: Ionic, confined, hydrogenic.

  Adding cutoff potential to free-atom effective potential.
  Creating atomic-like basis functions for current effective potential.

  Species O                   :

  List of atomic basis orbitals and eigenvalues:
    n    l      energy [Ha]    energy [eV]    outer radius [A]
    1    0       -18.927378      -515.0401       1.415765
    2    0        -0.880539       -23.9607       5.048385
    2    1        -0.331811        -9.0290       5.301386


  Species Rh                  :

  List of atomic basis orbitals and eigenvalues:
    n    l      energy [Ha]    energy [eV]    outer radius [A]
    1    0      -869.428054    -23658.3411       0.228242
    2    0      -123.320099     -3355.7106       0.629596
    3    0       -21.947702      -597.2274       1.463523
    4    0        -3.027973       -82.3953       3.751555
    5    0        -0.154963        -4.2168       5.413631
    2    1      -110.480338     -3006.3230       0.645179
    3    1       -17.750584      -483.0180       1.594279
    4    1        -1.849081       -50.3161       4.506610
    3    2       -11.050960      -300.7119       1.891881
    4    2        -0.215636        -5.8678       5.347852

  Assembling full basis from fixed parts.
  | Species O :   atomic orbital   1 s accepted.
  | Species O :   atomic orbital   2 s accepted.
  | Species O :   atomic orbital   2 p accepted.
  | Species Rh :   atomic orbital   1 s accepted.
  | Species Rh :   atomic orbital   2 s accepted.
  | Species Rh :   atomic orbital   3 s accepted.
  | Species Rh :   atomic orbital   4 s accepted.
  | Species Rh :   atomic orbital   5 s accepted.
  | Species Rh :   atomic orbital   2 p accepted.
  | Species Rh :   atomic orbital   3 p accepted.
  | Species Rh :   atomic orbital   4 p accepted.
  | Species Rh :   atomic orbital   3 d accepted.
  | Species Rh :   atomic orbital   4 d accepted.
  Reducing total number of  Kohn-Sham states to       68.
 
  Basis size parameters after reduction:
  | Total number of radial functions:       13
  | Total number of basis functions :       68
 
  Testing on-site integration grid accuracy.
  |  Species  Function  <phi|h_atom|phi> (log., in eV)  <phi|h_atom|phi> (rad., in eV)
           1        1               -515.0401491148               -515.0401445497
           1        2                -23.9606901999                -23.9606901323
           1        3                 -9.0290718243                 -9.0290720379
           2        4             -23658.3410728169             -23658.3391938614
           2        5              -3355.7106309087              -3355.7105959767
           2        6               -597.2273693771               -597.2273653532
           2        7                -82.3953293486                -82.3953285068
           2        8                 -4.2230771701                 -4.2230937995
           2        9              -3006.3229537260              -3006.3229504900
           2       10               -483.0179614529               -483.0179594356
           2       11                -50.3160626553                -50.3160622036
           2       12               -300.7119231548               -300.7119225312
           2       13                 -5.8678822890                 -5.8678824877

  Preparing densities etc. for the partition functions (integrals / Hartree potential).

  Preparations completed.
  max(cpu_time)          :      0.280 s.
  Wall clock time (cpu1) :      0.434 s.
------------------------------------------------------------

------------------------------------------------------------
          Begin self-consistency loop: Initialization.

          Date     :  20160715, Time     :  071040.034
------------------------------------------------------------

  Initializing index lists of integration centers etc. from given atomic structure:
  Mapping all atomic coordinates to central unit cell.

  Initializing the k-points
          Using symmetry for reducing the k-points
  | k-points reduced from:      324 to      164
  | Number of k-points                             :       164
  The eigenvectors in the calculations are COMPLEX.
  | K-points in task   0:         2
  | K-points in task   1:         3
  | K-points in task   2:         3
  | K-points in task   3:         3
  | K-points in task   4:         3
  | K-points in task   5:         3
  | K-points in task   6:         3
  | K-points in task   7:         3
  | K-points in task   8:         3
  | K-points in task   9:         3
  | K-points in task  10:         3
  | K-points in task  11:         3
  | K-points in task  12:         3
  | K-points in task  13:         3
  | K-points in task  14:         3
  | K-points in task  15:         3
  | K-points in task  16:         3
  | K-points in task  17:         3
  | K-points in task  18:         3
  | K-points in task  19:         3
  | K-points in task  20:         3
  | K-points in task  21:         3
  | K-points in task  22:         3
  | K-points in task  23:         3
  | K-points in task  24:         3
  | K-points in task  25:         3
  | K-points in task  26:         3
  | K-points in task  27:         3
  | K-points in task  28:         3
  | K-points in task  29:         3
  | K-points in task  30:         3
  | K-points in task  31:         3
  | K-points in task  32:         3
  | K-points in task  33:         3
  | K-points in task  34:         3
  | K-points in task  35:         3
  | K-points in task  36:         3
  | K-points in task  37:         2
  | K-points in task  38:         2
  | K-points in task  39:         2
  | K-points in task  40:         2
  | K-points in task  41:         2
  | K-points in task  42:         2
  | K-points in task  43:         2
  | K-points in task  44:         2
  | K-points in task  45:         2
  | K-points in task  46:         2
  | K-points in task  47:         2
  | K-points in task  48:         2
  | K-points in task  49:         2
  | K-points in task  50:         2
  | K-points in task  51:         2
  | K-points in task  52:         2
  | K-points in task  53:         2
  | K-points in task  54:         2
  | K-points in task  55:         2
  | K-points in task  56:         2
  | K-points in task  57:         2
  | K-points in task  58:         2
  | K-points in task  59:         2
  | K-points in task  60:         2
  | K-points in task  61:         2
  | K-points in task  62:         2
  | K-points in task  63:         2
  | Number of basis functions in the Hamiltonian integrals :      1504
  | Number of basis functions in a single unit cell        :        68
  | Number of centers in hartree potential         :      1302
  | Number of centers in hartree multipole         :      1139
  | Number of centers in electron density summation:       783
  | Number of centers in basis integrals           :       897
  | Number of centers in integrals                 :       291
  | Consuming        486 KiB for k_phase.
  | Number of super-cells :                 190
  | Size of matrix packed + index :       77455
  Perform CPU consistency test for lattice for partition grid
  Perform CPU consistency test for map_to_center_cell_matrix for partition grid
  Partitioning the integration grid into batches with parallel hashing+maxmin method.
  | Number of batches:     1831
  | Maximal batch size:     112
  | Minimal batch size:      50
  | Average batch size:      71.932
  | Standard deviation of batch sizes:      16.486

  Integration load balanced across    64 MPI tasks.
  Work distribution over tasks is as follows:
  Task     0 has       2065 integration points.
  Task     1 has       2072 integration points.
  Task     2 has       2102 integration points.
  Task     3 has       2065 integration points.
  Task     4 has       2024 integration points.
  Task     5 has       2062 integration points.
  Task     6 has       2069 integration points.
  Task     7 has       2069 integration points.
  Task     8 has       2070 integration points.
  Task     9 has       2018 integration points.
  Task    10 has       2105 integration points.
  Task    11 has       2073 integration points.
  Task    12 has       2098 integration points.
  Task    13 has       2075 integration points.
  Task    14 has       2022 integration points.
  Task    15 has       2068 integration points.
  Task    16 has       2071 integration points.
  Task    17 has       2079 integration points.
  Task    18 has       2024 integration points.
  Task    19 has       2062 integration points.
  Task    20 has       2029 integration points.
  Task    21 has       2066 integration points.
  Task    22 has       2065 integration points.
  Task    23 has       2068 integration points.
  Task    24 has       2018 integration points.
  Task    25 has       2067 integration points.
  Task    26 has       2057 integration points.
  Task    27 has       2071 integration points.
  Task    28 has       2070 integration points.
  Task    29 has       2075 integration points.
  Task    30 has       2016 integration points.
  Task    31 has       2019 integration points.
  Task    32 has       2072 integration points.
  Task    33 has       2065 integration points.
  Task    34 has       2075 integration points.
  Task    35 has       2077 integration points.
  Task    36 has       2068 integration points.
  Task    37 has       2025 integration points.
  Task    38 has       2073 integration points.
  Task    39 has       2067 integration points.
  Task    40 has       2020 integration points.
  Task    41 has       2074 integration points.
  Task    42 has       2020 integration points.
  Task    43 has       2077 integration points.
  Task    44 has       2071 integration points.
  Task    45 has       2059 integration points.
  Task    46 has       2023 integration points.
  Task    47 has       2076 integration points.
  Task    48 has       2070 integration points.
  Task    49 has       2058 integration points.
  Task    50 has       2019 integration points.
  Task    51 has       2070 integration points.
  Task    52 has       2069 integration points.
  Task    53 has       2058 integration points.
  Task    54 has       2066 integration points.
  Task    55 has       2066 integration points.
  Task    56 has       2019 integration points.
  Task    57 has       2062 integration points.
  Task    58 has       2021 integration points.
  Task    59 has       2063 integration points.
  Task    60 has       2060 integration points.
  Task    61 has       2020 integration points.
  Task    62 has       2066 integration points.
  Task    63 has       2065 integration points.
  Initializing partition tables, free-atom densities, potentials, etc. across the integration grid (initialize_grid_storage).
  | initialize_grid_storage: Actual outermost partition radius vs. multipole_radius_free
  | (-- VB: in principle, multipole_radius_free should be larger, hence this output)
  | Species        1: outer_partition_radius =              6.000000000000000 AA, multipole_radius_free =              6.064445521808699 AA.
  | Species        2: outer_partition_radius =              6.000000000000000 AA, multipole_radius_free =              6.043267867888012 AA.
  | Original list of interatomic distances with         897 x        897 entries is created.
  | Net number of integration points:   131708
  | of which are non-zero points    :    94924
  | Numerical average free-atom electrostatic potential    :    -19.25094213 eV
  Obtaining max. number of non-zero basis functions in each batch (get_n_compute_maxes).
  | Maximal number of non-zero basis functions:      430 in task     0
  | Maximal number of non-zero basis functions:      423 in task     1
  | Maximal number of non-zero basis functions:      430 in task     2
  | Maximal number of non-zero basis functions:      429 in task     3
  | Maximal number of non-zero basis functions:      425 in task     4
  | Maximal number of non-zero basis functions:      426 in task     5
  | Maximal number of non-zero basis functions:      434 in task     6
  | Maximal number of non-zero basis functions:      432 in task     7
  | Maximal number of non-zero basis functions:      436 in task     8
  | Maximal number of non-zero basis functions:      426 in task     9
  | Maximal number of non-zero basis functions:      438 in task    10
  | Maximal number of non-zero basis functions:      433 in task    11
  | Maximal number of non-zero basis functions:      435 in task    12
  | Maximal number of non-zero basis functions:      423 in task    13
  | Maximal number of non-zero basis functions:      425 in task    14
  | Maximal number of non-zero basis functions:      427 in task    15
  | Maximal number of non-zero basis functions:      434 in task    16
  | Maximal number of non-zero basis functions:      433 in task    17
  | Maximal number of non-zero basis functions:      430 in task    18
  | Maximal number of non-zero basis functions:      434 in task    19
  | Maximal number of non-zero basis functions:      439 in task    20
  | Maximal number of non-zero basis functions:      422 in task    21
  | Maximal number of non-zero basis functions:      438 in task    22
  | Maximal number of non-zero basis functions:      424 in task    23
  | Maximal number of non-zero basis functions:      436 in task    24
  | Maximal number of non-zero basis functions:      422 in task    25
  | Maximal number of non-zero basis functions:      425 in task    26
  | Maximal number of non-zero basis functions:      430 in task    27
  | Maximal number of non-zero basis functions:      423 in task    28
  | Maximal number of non-zero basis functions:      438 in task    29
  | Maximal number of non-zero basis functions:      434 in task    30
  | Maximal number of non-zero basis functions:      421 in task    31
  | Maximal number of non-zero basis functions:      439 in task    32
  | Maximal number of non-zero basis functions:      432 in task    33
  | Maximal number of non-zero basis functions:      429 in task    34
  | Maximal number of non-zero basis functions:      421 in task    35
  | Maximal number of non-zero basis functions:      438 in task    36
  | Maximal number of non-zero basis functions:      438 in task    37
  | Maximal number of non-zero basis functions:      428 in task    38
  | Maximal number of non-zero basis functions:      438 in task    39
  | Maximal number of non-zero basis functions:      422 in task    40
  | Maximal number of non-zero basis functions:      421 in task    41
  | Maximal number of non-zero basis functions:      443 in task    42
  | Maximal number of non-zero basis functions:      427 in task    43
  | Maximal number of non-zero basis functions:      416 in task    44
  | Maximal number of non-zero basis functions:      432 in task    45
  | Maximal number of non-zero basis functions:      427 in task    46
  | Maximal number of non-zero basis functions:      430 in task    47
  | Maximal number of non-zero basis functions:      433 in task    48
  | Maximal number of non-zero basis functions:      436 in task    49
  | Maximal number of non-zero basis functions:      439 in task    50
  | Maximal number of non-zero basis functions:      434 in task    51
  | Maximal number of non-zero basis functions:      433 in task    52
  | Maximal number of non-zero basis functions:      428 in task    53
  | Maximal number of non-zero basis functions:      433 in task    54
  | Maximal number of non-zero basis functions:      429 in task    55
  | Maximal number of non-zero basis functions:      430 in task    56
  | Maximal number of non-zero basis functions:      423 in task    57
  | Maximal number of non-zero basis functions:      436 in task    58
  | Maximal number of non-zero basis functions:      419 in task    59
  | Maximal number of non-zero basis functions:      430 in task    60
  | Maximal number of non-zero basis functions:      431 in task    61
  | Maximal number of non-zero basis functions:      428 in task    62
  | Maximal number of non-zero basis functions:      436 in task    63
  Integrating Hamiltonian matrix: batch-based integration.
  Time summed over all CPUs for integration: real work       10.377 s, elapsed       11.376 s
  Integrating overlap matrix.
  Time summed over all CPUs for integration: real work        4.889 s, elapsed        5.119 s
  Decreasing sparse matrix size:
   Tolerance:  9.999999824516700E-014
   Hamiltonian matrix
  | Array has    59135 nonzero elements out of    77455 elements
  | Sparsity factor is 0.237
   Overlap matrix
  | Array has    53374 nonzero elements out of    77455 elements
  | Sparsity factor is 0.311
  New size of hamiltonian matrix:       59579

  Updating Kohn-Sham eigenvalues, eigenvectors, occupation numbers, and Fermi level.
  Solving generalized eigenproblem
  Transforming overlap matrix and checking for singularities.
  Overlap matrix is nonsingular at first k-point:
  | Lowest eigenvalue:  0.113829E+00
  Determining occupation numbers for Kohn-Sham eigenstates.
  | Chemical potential (Fermi level) in eV                 : -.53459004E+01
  | Error in electron count due to remaining E_F inaccuracy: 0.18474111E-12
  | Maximum occupation number of highest empty state:  2.60E-32

  Writing Kohn-Sham eigenvalues.
  K-point:       1 at    0.000000    0.000000    0.000000 (in units of recip. lattice)

  State    Occupation    Eigenvalue [Ha]    Eigenvalue [eV]
      1       2.00000        -869.437295       -23658.59255
      2       2.00000        -869.437295       -23658.59255
      3       2.00000        -123.329732        -3355.97275
      4       2.00000        -123.329732        -3355.97275
      5       2.00000        -110.489986        -3006.58548
      6       2.00000        -110.489986        -3006.58548
      7       2.00000        -110.489968        -3006.58501
      8       2.00000        -110.489968        -3006.58501
      9       2.00000        -110.489953        -3006.58460
     10       2.00000        -110.489953        -3006.58460
     11       2.00000         -21.958327         -597.51647
     12       2.00000         -21.958327         -597.51647
     13       2.00000         -18.991192         -516.77664
     14       2.00000         -18.991192         -516.77664
     15       2.00000         -18.991192         -516.77664
     16       2.00000         -18.991192         -516.77664
     17       2.00000         -17.761405         -483.31242
     18       2.00000         -17.761405         -483.31242
     19       2.00000         -17.761232         -483.30771
     20       2.00000         -17.761232         -483.30771
     21       2.00000         -17.761074         -483.30340
     22       2.00000         -17.761074         -483.30340
     23       2.00000         -11.061677         -301.00355
     24       2.00000         -11.061677         -301.00355
     25       2.00000         -11.061619         -301.00198
     26       2.00000         -11.061619         -301.00198
     27       2.00000         -11.061566         -301.00051
     28       2.00000         -11.061566         -301.00051
     29       2.00000         -11.061413         -300.99637
     30       2.00000         -11.061413         -300.99637
     31       2.00000         -11.061406         -300.99616
     32       2.00000         -11.061406         -300.99616
     33       2.00000          -3.047337          -82.92225
     34       2.00000          -3.047214          -82.91892
     35       2.00000          -1.874257          -51.00112
     36       2.00000          -1.874257          -51.00112
     37       2.00000          -1.873859          -50.99029
     38       2.00000          -1.873188          -50.97205
     39       2.00000          -1.871031          -50.91334
     40       2.00000          -1.871031          -50.91334
     41       2.00000          -1.025186          -27.89674
     42       2.00000          -0.990397          -26.95009
     43       2.00000          -0.965906          -26.28364
     44       2.00000          -0.965906          -26.28364
     45       2.00000          -0.559025          -15.21185
     46       2.00000          -0.547555          -14.89973
     47       2.00000          -0.511491          -13.91839
     48       2.00000          -0.498484          -13.56445
     49       2.00000          -0.498484          -13.56445
     50       2.00000          -0.441572          -12.01578
     51       2.00000          -0.439241          -11.95236
     52       2.00000          -0.439241          -11.95236
     53       2.00000          -0.395735          -10.76849
     54       2.00000          -0.380859          -10.36371
     55       2.00000          -0.380859          -10.36371
     56       2.00000          -0.370814          -10.09037
     57       2.00000          -0.246449           -6.70623
     58       1.99997          -0.237706           -6.46831
     59       1.99996          -0.235902           -6.41922
     60       1.99995          -0.235664           -6.41274
     61       1.99995          -0.235664           -6.41274
     62       0.00019          -0.162500           -4.42185
     63       0.00001          -0.150164           -4.08616
     64       0.00000          -0.081962           -2.23031
     65       0.00000          -0.081962           -2.23031
     66       0.00000          -0.041462           -1.12823
     67       0.00000          -0.033059           -0.89958
     68       0.00000           0.285057            7.75679

  What follows are estimated values for band gap, HOMO, LUMO, etc.
  | They are estimated on a discrete k-point grid and not necessarily exact.
  | For converged numbers, create a DOS and/or band structure plot on a denser k-grid.

  Highest occupied state (VBM) at     -5.35046050 eV (relative to internal zero)
  | Occupation number:      1.02279637
  | K-point:     144 at    0.666667    0.500000    0.000000 (in units of recip. lattice)

  Lowest unoccupied state (CBM) at    -5.34178604 eV (relative to internal zero)
  | Occupation number:      0.97943089
  | K-point:     128 at    0.500000    0.500000    0.000000 (in units of recip. lattice)

  ESTIMATED overall HOMO-LUMO gap:      0.00867447 eV between HOMO at k-point 144 and LUMO at k-point 128
  | This appears to be an indirect band gap.
  | Smallest direct gap :      0.34954709 eV for k_point 58 at    0.500000    0.500000    0.000000 (in units of recip. lattice)
  However, the gap value is rather small. Since we use a finite k-point grid,
  this material is most likely metallic (in the sense that there are states
  at or near the Fermi level). A DOS and/or band structure plot is required
  for an unambiguous distinction.
  Calculating total energy contributions from superposition of free atom densities.

  Total energy components:
  | Sum of eigenvalues            :       -6026.89259438 Ha     -164000.09172595 eV
  | XC energy correction          :        -312.63881889 Ha       -8507.33511048 eV
  | XC potential correction       :         407.07462286 Ha       11077.06408282 eV
  | Free-atom electrostatic energy:       -4042.56597338 Ha     -110003.81706817 eV
  | Hartree energy correction     :           0.00000000 Ha           0.00000000 eV
  | Entropy correction            :           0.00007971 Ha           0.00216904 eV
  | ---------------------------
  | Total energy                  :       -9975.02276379 Ha     -271434.17982179 eV
  | Total energy, T -> 0          :       -9975.02268408 Ha     -271434.17765274 eV  <-- do not rely on this value for anything but (periodic) metals
  | Electronic free energy        :       -9975.02260437 Ha     -271434.17548370 eV

  Derived energy quantities:
  | Kinetic energy                :       10320.96213054 Ha      280847.66894414 eV
  | Electrostatic energy          :      -19983.34607544 Ha     -543774.51365545 eV
  | Energy correction for multipole
  | error in Hartree potential    :           0.00000000 Ha           0.00000000 eV
  | Sum of eigenvalues per atom                           :      -27333.34862099 eV
  | Total energy (T->0) per atom                          :      -45239.02960879 eV  <-- do not rely on this value for anything but (periodic) metals
  | Electronic free energy per atom                       :      -45239.02924728 eV
  Initialize hartree_potential_storage
  Max. number of atoms included in rho_multipole:            6

  End scf initialization - timings             :  max(cpu_time)    wall_clock(cpu1)
  | Time for scf. initialization               :        0.948 s           1.162 s
  | Boundary condition initialization          :        0.104 s           0.127 s
  | Integration                                :        0.252 s           0.284 s
  | Solution of K.-S. eqns.                    :        0.052 s           0.103 s
  | Grid partitioning                          :        0.056 s           0.058 s
  | Preloading free-atom quantities on grid    :        0.036 s           0.046 s
  | Free-atom superposition energy             :        0.036 s           0.038 s
  | Total energy evaluation                    :        0.004 s           0.015 s
------------------------------------------------------------

------------------------------------------------------------
          Begin self-consistency iteration #    1

  Date     :  20160715, Time     :  071041.213
------------------------------------------------------------
  Evaluating new KS density using the density matrix
  Evaluating density matrix
  Time summed over all CPUs for getting density from density matrix: real work       10.511 s, elapsed       11.171 s
  Integration grid: deviation in total charge (<rho> - N_e) =   2.842171E-13
  Pulay mixing of updated and previous charge densities.

  Evaluating partitioned Hartree potential by multipole expansion.
  | Analytical far-field extrapolation by fixed multipoles:
  | Hartree multipole sum: apparent total charge =   0.373439E-04
  Summing up the Hartree potential.
  | Estimated reciprocal-space cutoff momentum G_max:         3.32253784 bohr^-1 .
  | Reciprocal lattice points for long-range Hartree potential:     274
  Time summed over all CPUs for potential: real work       16.904 s, elapsed       18.196 s
  | RMS charge density error from multipole expansion :   0.100957E-03
  | Average real-space part of the electrostatic potential :      0.00724092 eV

  Integrating Hamiltonian matrix: batch-based integration.
  Time summed over all CPUs for integration: real work        7.429 s, elapsed        7.789 s

  Updating Kohn-Sham eigenvalues, eigenvectors, occupation numbers, and Fermi level.
  Solving generalized eigenproblem
  Determining occupation numbers for Kohn-Sham eigenstates.
  | Chemical potential (Fermi level) in eV                 : -.53887743E+01
  | Error in electron count due to remaining E_F inaccuracy: 0.14210855E-13
  | Maximum occupation number of highest empty state:  1.36E-32

  Writing Kohn-Sham eigenvalues.
  K-point:       1 at    0.000000    0.000000    0.000000 (in units of recip. lattice)

  State    Occupation    Eigenvalue [Ha]    Eigenvalue [eV]
      1       2.00000        -869.443321       -23658.75650
      2       2.00000        -869.443321       -23658.75650
      3       2.00000        -123.335610        -3356.13271
      4       2.00000        -123.335610        -3356.13271
      5       2.00000        -110.495913        -3006.74676
      6       2.00000        -110.495913        -3006.74676
      7       2.00000        -110.495901        -3006.74645
      8       2.00000        -110.495901        -3006.74645
      9       2.00000        -110.495869        -3006.74558
     10       2.00000        -110.495869        -3006.74558
     11       2.00000         -21.963351         -597.65318
     12       2.00000         -21.963351         -597.65318
     13       2.00000         -18.985427         -516.61976
     14       2.00000         -18.985427         -516.61976
     15       2.00000         -18.985427         -516.61976
     16       2.00000         -18.985427         -516.61976
     17       2.00000         -17.766407         -483.44853
     18       2.00000         -17.766407         -483.44853
     19       2.00000         -17.766305         -483.44577
     20       2.00000         -17.766305         -483.44577
     21       2.00000         -17.766084         -483.43974
     22       2.00000         -17.766084         -483.43974
     23       2.00000         -11.066810         -301.14322
     24       2.00000         -11.066810         -301.14322
     25       2.00000         -11.066714         -301.14060
     26       2.00000         -11.066714         -301.14060
     27       2.00000         -11.066685         -301.13983
     28       2.00000         -11.066685         -301.13983
     29       2.00000         -11.066518         -301.13529
     30       2.00000         -11.066518         -301.13529
     31       2.00000         -11.066496         -301.13469
     32       2.00000         -11.066496         -301.13469
     33       2.00000          -3.050986          -83.02155
     34       2.00000          -3.050863          -83.01821
     35       2.00000          -1.877674          -51.09412
     36       2.00000          -1.877674          -51.09412
     37       2.00000          -1.877216          -51.08164
     38       2.00000          -1.876556          -51.06368
     39       2.00000          -1.874364          -51.00403
     40       2.00000          -1.874364          -51.00403
     41       2.00000          -1.023151          -27.84135
     42       2.00000          -0.988257          -26.89185
     43       2.00000          -0.963560          -26.21981
     44       2.00000          -0.963560          -26.21981
     45       2.00000          -0.557914          -15.18161
     46       2.00000          -0.546781          -14.87867
     47       2.00000          -0.510215          -13.88364
     48       2.00000          -0.497472          -13.53689
     49       2.00000          -0.497472          -13.53689
     50       2.00000          -0.439390          -11.95642
     51       2.00000          -0.437034          -11.89231
     52       2.00000          -0.437034          -11.89231
     53       2.00000          -0.393277          -10.70160
     54       2.00000          -0.378292          -10.29386
     55       2.00000          -0.378292          -10.29386
     56       2.00000          -0.368137          -10.01752
     57       2.00000          -0.248767           -6.76930
     58       1.99998          -0.239607           -6.52005
     59       1.99997          -0.238374           -6.48648
     60       1.99996          -0.238184           -6.48132
     61       1.99996          -0.238184           -6.48132
     62       0.00018          -0.163709           -4.45475
     63       0.00001          -0.152189           -4.14128
     64       0.00000          -0.083023           -2.25917
     65       0.00000          -0.083023           -2.25917
     66       0.00000          -0.041727           -1.13545
     67       0.00000          -0.033127           -0.90142
     68       0.00000           0.285624            7.77223

  What follows are estimated values for band gap, HOMO, LUMO, etc.
  | They are estimated on a discrete k-point grid and not necessarily exact.
  | For converged numbers, create a DOS and/or band structure plot on a denser k-grid.

  Highest occupied state (VBM) at     -5.39323842 eV (relative to internal zero)
  | Occupation number:      1.02231664
  | K-point:     144 at    0.666667    0.500000    0.000000 (in units of recip. lattice)

  Lowest unoccupied state (CBM) at    -5.38375488 eV (relative to internal zero)
  | Occupation number:      0.97490794
  | K-point:     128 at    0.500000    0.500000    0.000000 (in units of recip. lattice)

  ESTIMATED overall HOMO-LUMO gap:      0.00948353 eV between HOMO at k-point 144 and LUMO at k-point 128
  | This appears to be an indirect band gap.
  | Smallest direct gap :      0.35346678 eV for k_point 141 at    0.500000    0.500000    0.000000 (in units of recip. lattice)
  However, the gap value is rather small. Since we use a finite k-point grid,
  this material is most likely metallic (in the sense that there are states
  at or near the Fermi level). A DOS and/or band structure plot is required
  for an unambiguous distinction.

  Total energy components:
  | Sum of eigenvalues            :       -6027.16435917 Ha     -164007.48682200 eV
  | XC energy correction          :        -312.63974239 Ha       -8507.36024003 eV
  | XC potential correction       :         407.07540979 Ha       11077.08549624 eV
  | Free-atom electrostatic energy:       -4042.56597338 Ha     -110003.81706817 eV
  | Hartree energy correction     :           0.29268871 Ha           7.96446490 eV
  | Entropy correction            :           0.00007237 Ha           0.00196929 eV
  | ---------------------------
  | Total energy                  :       -9975.00197644 Ha     -271433.61416906 eV
  | Total energy, T -> 0          :       -9975.00190407 Ha     -271433.61219977 eV  <-- do not rely on this value for anything but (periodic) metals
  | Electronic free energy        :       -9975.00183170 Ha     -271433.61023048 eV

  Derived energy quantities:
  | Kinetic energy                :       10320.92408971 Ha      280846.63380046 eV
  | Electrostatic energy          :      -19983.28632376 Ha     -543772.88772949 eV
  | Energy correction for multipole
  | error in Hartree potential    :          -0.00001352 Ha          -0.00036777 eV
  | Sum of eigenvalues per atom                           :      -27334.58113700 eV
  | Total energy (T->0) per atom                          :      -45238.93536663 eV  <-- do not rely on this value for anything but (periodic) metals
  | Electronic free energy per atom                       :      -45238.93503841 eV

  Self-consistency convergence accuracy:
  | Change of charge density      : 0.9476E+00
  | Change of sum of eigenvalues  : -.7395E+01 eV
  | Change of total energy        : 0.5657E+00 eV

  End self-consistency iteration #     1       :  max(cpu_time)    wall_clock(cpu1)
  | Time for this iteration                    :        0.756 s           0.833 s
  | Charge density update                      :        0.208 s           0.226 s
  | Density mixing & preconditioning           :        0.124 s           0.134 s
  | Hartree multipole update                   :        0.008 s           0.009 s
  | Hartree multipole summation                :        0.292 s           0.321 s
  | Integration                                :        0.128 s           0.124 s
  | Solution of K.-S. eqns.                    :        0.008 s           0.008 s
  | Total energy evaluation                    :        0.004 s           0.000 s
------------------------------------------------------------

------------------------------------------------------------
          Begin self-consistency iteration #    2

  Date     :  20160715, Time     :  071042.057
------------------------------------------------------------
  Evaluating new KS density using the density matrix
  Evaluating density matrix
  Time summed over all CPUs for getting density from density matrix: real work       10.380 s, elapsed       10.958 s
  Integration grid: deviation in total charge (<rho> - N_e) =   5.684342E-14
  Pulay mixing of updated and previous charge densities.

  Evaluating partitioned Hartree potential by multipole expansion.
  | Analytical far-field extrapolation by fixed multipoles:
  | Hartree multipole sum: apparent total charge =   0.218386E-02
  Summing up the Hartree potential.
  Time summed over all CPUs for potential: real work       14.726 s, elapsed       15.751 s
  | RMS charge density error from multipole expansion :   0.544125E-02
  | Average real-space part of the electrostatic potential :      0.38940972 eV

  Integrating Hamiltonian matrix: batch-based integration.
  Time summed over all CPUs for integration: real work        7.430 s, elapsed        7.798 s

  Updating Kohn-Sham eigenvalues, eigenvectors, occupation numbers, and Fermi level.
  Solving generalized eigenproblem
  Determining occupation numbers for Kohn-Sham eigenstates.
  | Chemical potential (Fermi level) in eV                 : -.58640628E+01
  | Error in electron count due to remaining E_F inaccuracy: -.13901627E-08
  | Maximum occupation number of highest empty state:  8.36E-41

  What follows are estimated values for band gap, HOMO, LUMO, etc.
  | They are estimated on a discrete k-point grid and not necessarily exact.
  | For converged numbers, create a DOS and/or band structure plot on a denser k-grid.

  Highest occupied state (VBM) at     -5.89662829 eV (relative to internal zero)
  | Occupation number:      1.16140352
  | K-point:      48 at    0.166667    0.333333    0.777778 (in units of recip. lattice)

  Lowest unoccupied state (CBM) at    -5.86357481 eV (relative to internal zero)
  | Occupation number:      0.99756003
  | K-point:      90 at    0.333333    0.500000    0.222222 (in units of recip. lattice)

  ESTIMATED overall HOMO-LUMO gap:      0.03305348 eV between HOMO at k-point 48 and LUMO at k-point 90
  | This appears to be an indirect band gap.
  | Smallest direct gap :      0.12541198 eV for k_point 3 at    0.333333    0.500000    0.222222 (in units of recip. lattice)
  However, the gap value is rather small. Since we use a finite k-point grid,
  this material is most likely metallic (in the sense that there are states
  at or near the Fermi level). A DOS and/or band structure plot is required
  for an unambiguous distinction.

  Total energy components:
  | Sum of eigenvalues            :       -6041.94576682 Ha     -164409.70938895 eV
  | XC energy correction          :        -312.72384786 Ha       -8509.64886643 eV
  | XC potential correction       :         407.16112386 Ha       11079.41789475 eV
  | Free-atom electrostatic energy:       -4042.56597338 Ha     -110003.81706817 eV
  | Hartree energy correction     :          15.49520180 Ha         421.64589403 eV
  | Entropy correction            :          -0.00009203 Ha          -0.00250426 eV
  | ---------------------------
  | Total energy                  :       -9974.57926240 Ha     -271422.11153478 eV
  | Total energy, T -> 0          :       -9974.57935443 Ha     -271422.11403904 eV  <-- do not rely on this value for anything but (periodic) metals
  | Electronic free energy        :       -9974.57944646 Ha     -271422.11654330 eV

  Derived energy quantities:
  | Kinetic energy                :       10318.05572258 Ha      280768.58155954 eV
  | Electrostatic energy          :      -19979.91113712 Ha     -543681.04422788 eV
  | Energy correction for multipole
  | error in Hartree potential    :          -0.00062748 Ha          -0.01707457 eV
  | Sum of eigenvalues per atom                           :      -27401.61823149 eV
  | Total energy (T->0) per atom                          :      -45237.01900651 eV  <-- do not rely on this value for anything but (periodic) metals
  | Electronic free energy per atom                       :      -45237.01942388 eV

  Self-consistency convergence accuracy:
  | Change of charge density      : 0.9304E+00
  | Change of sum of eigenvalues  : -.4022E+03 eV
  | Change of total energy        : 0.1150E+02 eV

  End self-consistency iteration #     2       :  max(cpu_time)    wall_clock(cpu1)
  | Time for this iteration                    :        0.688 s           0.686 s
  | Charge density update                      :        0.184 s           0.175 s
  | Density mixing & preconditioning           :        0.116 s           0.121 s
  | Hartree multipole update                   :        0.004 s           0.002 s
  | Hartree multipole summation                :        0.260 s           0.254 s
  | Integration                                :        0.128 s           0.124 s
  | Solution of K.-S. eqns.                    :        0.008 s           0.008 s
  | Total energy evaluation                    :        0.004 s           0.001 s
------------------------------------------------------------

------------------------------------------------------------
          Begin self-consistency iteration #    3

  Date     :  20160715, Time     :  071042.744
------------------------------------------------------------
  Evaluating new KS density using the density matrix
  Evaluating density matrix
  Time summed over all CPUs for getting density from density matrix: real work       10.355 s, elapsed       10.978 s
  Integration grid: deviation in total charge (<rho> - N_e) =  -1.390106E-09
  Pulay mixing of updated and previous charge densities.

  Evaluating partitioned Hartree potential by multipole expansion.
  | Analytical far-field extrapolation by fixed multipoles:
  | Hartree multipole sum: apparent total charge =   0.204236E-02
  Summing up the Hartree potential.
  Time summed over all CPUs for potential: real work       14.691 s, elapsed       15.719 s
  | RMS charge density error from multipole expansion :   0.477808E-02
  | Average real-space part of the electrostatic potential :      0.34182473 eV

  Integrating Hamiltonian matrix: batch-based integration.
  Time summed over all CPUs for integration: real work        7.438 s, elapsed        7.808 s

  Updating Kohn-Sham eigenvalues, eigenvectors, occupation numbers, and Fermi level.
  Solving generalized eigenproblem
  Determining occupation numbers for Kohn-Sham eigenstates.
  | Chemical potential (Fermi level) in eV                 : -.60274518E+01
  | Error in electron count due to remaining E_F inaccuracy: -.85265128E-13
  | Maximum occupation number of highest empty state:  1.30E-40

  What follows are estimated values for band gap, HOMO, LUMO, etc.
  | They are estimated on a discrete k-point grid and not necessarily exact.
  | For converged numbers, create a DOS and/or band structure plot on a denser k-grid.

  Highest occupied state (VBM) at     -6.02757850 eV (relative to internal zero)
  | Occupation number:      1.00063361
  | K-point:      44 at    0.166667    0.333333    0.222222 (in units of recip. lattice)

  Lowest unoccupied state (CBM) at    -6.01473569 eV (relative to internal zero)
  | Occupation number:      0.93650509
  | K-point:       3 at    0.000000    0.000000    0.333333 (in units of recip. lattice)

  ESTIMATED overall HOMO-LUMO gap:      0.01284281 eV between HOMO at k-point 44 and LUMO at k-point 3
  | This appears to be an indirect band gap.
  | Smallest direct gap :      0.18110532 eV for k_point 80 at    0.000000    0.000000    0.333333 (in units of recip. lattice)
  However, the gap value is rather small. Since we use a finite k-point grid,
  this material is most likely metallic (in the sense that there are states
  at or near the Fermi level). A DOS and/or band structure plot is required
  for an unambiguous distinction.

  Total energy components:
  | Sum of eigenvalues            :       -6039.98690234 Ha     -164356.40597458 eV
  | XC energy correction          :        -312.71044812 Ha       -8509.28424103 eV
  | XC potential correction       :         407.14691453 Ha       11079.03123918 eV
  | Free-atom electrostatic energy:       -4042.56597338 Ha     -110003.81706817 eV
  | Hartree energy correction     :          13.56860101 Ha         369.22041928 eV
  | Entropy correction            :          -0.00009189 Ha          -0.00250034 eV
  | ---------------------------
  | Total energy                  :       -9974.54780830 Ha     -271421.25562532 eV
  | Total energy, T -> 0          :       -9974.54790019 Ha     -271421.25812566 eV  <-- do not rely on this value for anything but (periodic) metals
  | Electronic free energy        :       -9974.54799207 Ha     -271421.26062600 eV

  Derived energy quantities:
  | Kinetic energy                :       10318.54436561 Ha      280781.87821302 eV
  | Electrostatic energy          :      -19980.38172579 Ha     -543693.84959731 eV
  | Energy correction for multipole
  | error in Hartree potential    :          -0.00056936 Ha          -0.01549299 eV
  | Sum of eigenvalues per atom                           :      -27392.73432910 eV
  | Total energy (T->0) per atom                          :      -45236.87635428 eV  <-- do not rely on this value for anything but (periodic) metals
  | Electronic free energy per atom                       :      -45236.87677100 eV

  Self-consistency convergence accuracy:
  | Change of charge density      : 0.3175E+00
  | Change of sum of eigenvalues  : 0.5330E+02 eV
  | Change of total energy        : 0.8559E+00 eV

  End self-consistency iteration #     3       :  max(cpu_time)    wall_clock(cpu1)
  | Time for this iteration                    :        0.684 s           0.676 s
  | Charge density update                      :        0.180 s           0.174 s
  | Density mixing & preconditioning           :        0.112 s           0.113 s
  | Hartree multipole update                   :        0.004 s           0.002 s
  | Hartree multipole summation                :        0.256 s           0.253 s
  | Integration                                :        0.128 s           0.124 s
  | Solution of K.-S. eqns.                    :        0.012 s           0.008 s
  | Total energy evaluation                    :        0.004 s           0.001 s
------------------------------------------------------------

------------------------------------------------------------
          Begin self-consistency iteration #    4

  Date     :  20160715, Time     :  071043.421
------------------------------------------------------------
  Evaluating new KS density using the density matrix
  Evaluating density matrix
  Time summed over all CPUs for getting density from density matrix: real work       10.345 s, elapsed       10.979 s
  Integration grid: deviation in total charge (<rho> - N_e) =  -8.526513E-14
  Pulay mixing of updated and previous charge densities.

  Evaluating partitioned Hartree potential by multipole expansion.
  | Analytical far-field extrapolation by fixed multipoles:
  | Hartree multipole sum: apparent total charge =   0.117491E-02
  Summing up the Hartree potential.
  Time summed over all CPUs for potential: real work       14.721 s, elapsed       15.734 s
  | RMS charge density error from multipole expansion :   0.504231E-02
  | Average real-space part of the electrostatic potential :      0.36347807 eV

  Integrating Hamiltonian matrix: batch-based integration.
  Time summed over all CPUs for integration: real work        7.437 s, elapsed        7.812 s

  Updating Kohn-Sham eigenvalues, eigenvectors, occupation numbers, and Fermi level.
  Solving generalized eigenproblem
  Determining occupation numbers for Kohn-Sham eigenstates.
  | Chemical potential (Fermi level) in eV                 : -.59522514E+01
  | Error in electron count due to remaining E_F inaccuracy: -.38333781E-09
  | Maximum occupation number of highest empty state:  8.99E-41

  What follows are estimated values for band gap, HOMO, LUMO, etc.
  | They are estimated on a discrete k-point grid and not necessarily exact.
  | For converged numbers, create a DOS and/or band structure plot on a denser k-grid.

  Highest occupied state (VBM) at     -5.95743082 eV (relative to internal zero)
  | Occupation number:      1.02589154
  | K-point:     102 at    0.333333    0.666667    0.777778 (in units of recip. lattice)

  Lowest unoccupied state (CBM) at    -5.93698744 eV (relative to internal zero)
  | Occupation number:      0.92382825
  | K-point:      23 at    0.000000    0.500000    0.444444 (in units of recip. lattice)

  ESTIMATED overall HOMO-LUMO gap:      0.02044338 eV between HOMO at k-point 102 and LUMO at k-point 23
  | This appears to be an indirect band gap.
  | Smallest direct gap :      0.07147051 eV for k_point 3 at    0.000000    0.500000    0.444444 (in units of recip. lattice)
  However, the gap value is rather small. Since we use a finite k-point grid,
  this material is most likely metallic (in the sense that there are states
  at or near the Fermi level). A DOS and/or band structure plot is required
  for an unambiguous distinction.

  Total energy components:
  | Sum of eigenvalues            :       -6041.23619758 Ha     -164390.40102761 eV
  | XC energy correction          :        -312.71127073 Ha       -8509.30662531 eV
  | XC potential correction       :         407.14607776 Ha       11079.00846953 eV
  | Free-atom electrostatic energy:       -4042.56597338 Ha     -110003.81706817 eV
  | Hartree energy correction     :          14.80473996 Ha         402.85747138 eV
  | Entropy correction            :          -0.00009057 Ha          -0.00246443 eV
  | ---------------------------
  | Total energy                  :       -9974.56262397 Ha     -271421.65878018 eV
  | Total energy, T -> 0          :       -9974.56271454 Ha     -271421.66124461 eV  <-- do not rely on this value for anything but (periodic) metals
  | Electronic free energy        :       -9974.56280510 Ha     -271421.66370904 eV

  Derived energy quantities:
  | Kinetic energy                :       10318.15730262 Ha      280771.34569315 eV
  | Electrostatic energy          :      -19980.00865586 Ha     -543683.69784802 eV
  | Energy correction for multipole
  | error in Hartree potential    :          -0.00054498 Ha          -0.01482959 eV
  | Sum of eigenvalues per atom                           :      -27398.40017127 eV
  | Total energy (T->0) per atom                          :      -45236.94354077 eV  <-- do not rely on this value for anything but (periodic) metals
  | Electronic free energy per atom                       :      -45236.94395151 eV

  Self-consistency convergence accuracy:
  | Change of charge density      : 0.1851E+00
  | Change of sum of eigenvalues  : -.3400E+02 eV
  | Change of total energy        : -.4032E+00 eV

  End self-consistency iteration #     4       :  max(cpu_time)    wall_clock(cpu1)
  | Time for this iteration                    :        0.672 s           0.666 s
  | Charge density update                      :        0.180 s           0.174 s
  | Density mixing & preconditioning           :        0.104 s           0.102 s
  | Hartree multipole update                   :        0.004 s           0.002 s
  | Hartree multipole summation                :        0.260 s           0.254 s
  | Integration                                :        0.128 s           0.124 s
  | Solution of K.-S. eqns.                    :        0.008 s           0.008 s
  | Total energy evaluation                    :        0.004 s           0.001 s
------------------------------------------------------------

------------------------------------------------------------
          Begin self-consistency iteration #    5

  Date     :  20160715, Time     :  071044.088
------------------------------------------------------------
  Evaluating new KS density using the density matrix
  Evaluating density matrix
  Time summed over all CPUs for getting density from density matrix: real work       10.356 s, elapsed       10.942 s
  Integration grid: deviation in total charge (<rho> - N_e) =  -3.833662E-10
  Pulay mixing of updated and previous charge densities.

[...]
     42       2.00000          -0.895355          -24.36384
     43       2.00000          -0.856060          -23.29457
     44       2.00000          -0.856060          -23.29457
     45       2.00000          -0.528656          -14.38547
     46       2.00000          -0.521063          -14.17886
     47       2.00000          -0.473906          -12.89563
     48       2.00000          -0.473906          -12.89563
     49       2.00000          -0.470069          -12.79123
     50       2.00000          -0.341035           -9.28003
     51       2.00000          -0.336444           -9.15510
     52       2.00000          -0.336444           -9.15510
     53       2.00000          -0.335784           -9.13714
     54       2.00000          -0.332191           -9.03938
     55       2.00000          -0.332191           -9.03938
     56       2.00000          -0.329926           -8.97776
     57       2.00000          -0.304038           -8.27329
     58       2.00000          -0.283041           -7.70194
     59       2.00000          -0.260942           -7.10061
     60       2.00000          -0.260942           -7.10061
     61       1.99962          -0.243204           -6.61791
     62       1.52848          -0.216006           -5.87782
     63       0.00020          -0.177825           -4.83887
     64       0.00000          -0.089229           -2.42805
     65       0.00000          -0.089229           -2.42805
     66       0.00000          -0.044463           -1.20991
     67       0.00000           0.000804            0.02187
     68       0.00000           0.322892            8.78633

  What follows are estimated values for band gap, HOMO, LUMO, etc.
  | They are estimated on a discrete k-point grid and not necessarily exact.
  | For converged numbers, create a DOS and/or band structure plot on a denser k-grid.

  Highest occupied state (VBM) at     -5.77098313 eV (relative to internal zero)
  | Occupation number:      1.05377575
  | K-point:      32 at    0.166667    0.000000    0.333333 (in units of recip. lattice)

  Lowest unoccupied state (CBM) at    -5.75420187 eV (relative to internal zero)
  | Occupation number:      0.96993047
  | K-point:     107 at    0.333333    0.833333    0.555556 (in units of recip. lattice)

  ESTIMATED overall HOMO-LUMO gap:      0.01678126 eV between HOMO at k-point 32 and LUMO at k-point 107
  | This appears to be an indirect band gap.
  | Smallest direct gap :      0.12161532 eV for k_point 3 at    0.333333    0.833333    0.555556 (in units of recip. lattice)
  However, the gap value is rather small. Since we use a finite k-point grid,
  this material is most likely metallic (in the sense that there are states
  at or near the Fermi level). A DOS and/or band structure plot is required
  for an unambiguous distinction.

  Self-consistency cycle converged.

  End self-consistency iteration #    24       :  max(cpu_time)    wall_clock(cpu1)
  | Time for this iteration                    :        4.704 s           4.736 s
  | Charge density & force component update    :        3.576 s           3.598 s
  | Density mixing                             :        0.004 s           0.001 s
  | Hartree multipole update                   :        0.004 s           0.002 s
  | Hartree multipole summation                :        0.992 s           0.989 s
  | Integration                                :        0.124 s           0.124 s
  | Solution of K.-S. eqns.                    :        0.008 s           0.007 s
  | Total energy evaluation                    :        0.004 s           0.011 s
------------------------------------------------------------
  Obtaining max. number of non-zero basis functions in each batch .
  Evaluating KS electron density on previously omitted grid points, using the density matrix.
  Evaluating density matrix
------------------------------------------------------------
  Quadrupole information:
  | electronic quadrupole moment [eAng^2]     :         -0.610202738404983E+03        -0.545560321984559E+03         0.115576306038954E+04
  | ionic quadrupole moment [eAng^2]          :         -0.631970137969781E+03        -0.575066216258133E+03         0.120703635422791E+04
  | Total quadrupole moment [eAng^2]          :         -0.298700605706603E+02        -0.217673995647986E+02         0.516374601354590E+02
  Removing unitary transformations (pure translations, rotations) from forces on atoms.
  Atomic forces before filtering:
  | Net force on center of mass :  -.401820E-06 -.189082E-05 -.223369E-06 eV/A
  Atomic forces after filtering:
  | Net force on center of mass :  0.335289E-17 -.381911E-16 0.106338E-21 eV/A

  Energy and forces in a compact form:
  | Total energy uncorrected      :         -0.271421063627650E+06 eV
  | Total energy corrected        :         -0.271421065269191E+06 eV  <-- do not rely on this value for anything but (periodic) metals
  | Electronic free energy        :         -0.271421066910732E+06 eV
  Total atomic forces (unitary forces cleaned) [eV/Ang]:
  |   1         -0.121613494692820E+00         -0.121611066819838E+00          0.369593511965990E-07
  |   2          0.121613629842778E+00          0.121611696263527E+00          0.370221544822726E-07
  |   3          0.121613639564349E+00         -0.121611078312806E+00          0.374005335012850E-07
  |   4         -0.121613506673188E+00          0.121611708785410E+00          0.376061019986045E-07
  |   5          0.445454942440535E-07          0.235290650810942E-06         -0.192041121675712E-07
  |   6         -0.312586613899479E-06         -0.149520694379676E-05         -0.129784029011190E-06

  ------------------------------------ 
  Start decomposition of the XC Energy 
  ------------------------------------ 
  Hartree-Fock part   :          0.000000000 Ha              0.000000000 eV
  ------------------------------------ 
  X Energy            :       -307.016807129 Ha          -8354.352386740 eV
  C Energy GGA        :         -5.882510634 Ha           -160.071258696 eV
  Total XC Energy     :       -312.899317763 Ha          -8514.423645437 eV
  LDA X and C from self-consistent density 
  X Energy LDA        :       -291.038669992 Ha          -7919.565153526 eV
  C Energy LDA        :        -10.756314296 Ha           -292.694204116 eV
  ------------------------------------ 
  End decomposition of the XC Energy 
  ------------------------------------ 

  Performing Mulliken charge analysis on all atoms.
  Full analysis (per state, per k-point, etc.) will NOT be written to separate file 'Mulliken.out'.
  This file can be requested by stating 'output mulliken' explicitly.
  Summary of the per-atom charge analysis:
  |
  |  atom       electrons          charge             l=0             l=1             l=2
  |     1        8.507619       -0.507619        3.876367        4.631251
  |     2        8.507619       -0.507619        3.876367        4.631251
  |     3        8.507619       -0.507619        3.876367        4.631251
  |     4        8.507619       -0.507619        3.876367        4.631251
  |     5       43.984763        1.015237        8.357105       17.999749       17.627909
  |     6       43.984763        1.015237        8.357105       17.999749       17.627909
  |
  | Total      122.000000       -0.000000
 

  Calculating atom-projected density of states ...
  | Chemical potential is  -5.760218 eV.
  | writing projected DOS (shifted by the chemical potential) for species O to file atom_projected_dos_O0001.dat.
  | writing projected DOS (raw data) for species O to file atom_proj_dos_O0001_raw.dat.
  | writing projected DOS (shifted by the chemical potential) for species O to file atom_projected_dos_O0002.dat.
  | writing projected DOS (raw data) for species O to file atom_proj_dos_O0002_raw.dat.
  | writing projected DOS (shifted by the chemical potential) for species O to file atom_projected_dos_O0003.dat.
  | writing projected DOS (raw data) for species O to file atom_proj_dos_O0003_raw.dat.
  | writing projected DOS (shifted by the chemical potential) for species O to file atom_projected_dos_O0004.dat.
  | writing projected DOS (raw data) for species O to file atom_proj_dos_O0004_raw.dat.
  | writing projected DOS (shifted by the chemical potential) for species Rh to file atom_projected_dos_Rh0005.dat.
  | writing projected DOS (raw data) for species Rh to file atom_proj_dos_Rh0005_raw.dat.
  | writing projected DOS (shifted by the chemical potential) for species Rh to file atom_projected_dos_Rh0006.dat.
  | writing projected DOS (raw data) for species Rh to file atom_proj_dos_Rh0006_raw.dat.
  Performing Hirshfeld analysis of fragment charges and moments.
  ----------------------------------------------------------------------
  | Atom     1: O
  |   Hirshfeld charge        :     -0.25597059
  |   Free atom volume        :     23.74229847
  |   Hirshfeld volume        :     22.79793938
  |   Hirshfeld dipole vector :      0.00389354       0.00389354       0.00000000
  |   Hirshfeld dipole moment :      0.00550629
  |   Hirshfeld second moments:      0.01169787       0.00873930      -0.00000000
  |                                  0.00873930       0.01169787       0.00000000
  |                                 -0.00000000       0.00000000       0.01593590
  ----------------------------------------------------------------------
  | Atom     2: O
  |   Hirshfeld charge        :     -0.25597059
  |   Free atom volume        :     23.74229847
  |   Hirshfeld volume        :     22.79793938
  |   Hirshfeld dipole vector :     -0.00389354      -0.00389354       0.00000000
  |   Hirshfeld dipole moment :      0.00550629
  |   Hirshfeld second moments:      0.01169787       0.00873930      -0.00000000
  |                                  0.00873930       0.01169787       0.00000000
  |                                 -0.00000000       0.00000000       0.01593590
  ----------------------------------------------------------------------
  | Atom     3: O
  |   Hirshfeld charge        :     -0.25597059
  |   Free atom volume        :     23.74229847
  |   Hirshfeld volume        :     22.79793938
  |   Hirshfeld dipole vector :     -0.00389354       0.00389354       0.00000000
  |   Hirshfeld dipole moment :      0.00550629
  |   Hirshfeld second moments:      0.01169787      -0.00873930      -0.00000000
  |                                 -0.00873930       0.01169787      -0.00000000
  |                                 -0.00000000      -0.00000000       0.01593590
  ----------------------------------------------------------------------
  | Atom     4: O
  |   Hirshfeld charge        :     -0.25597059
  |   Free atom volume        :     23.74229847
  |   Hirshfeld volume        :     22.79793938
  |   Hirshfeld dipole vector :      0.00389354      -0.00389354      -0.00000000
  |   Hirshfeld dipole moment :      0.00550629
  |   Hirshfeld second moments:      0.01169787      -0.00873930      -0.00000000
  |                                 -0.00873930       0.01169787      -0.00000000
  |                                 -0.00000000      -0.00000000       0.01593590
  ----------------------------------------------------------------------
  | Atom     5: Rh
  |   Hirshfeld charge        :      0.51207609
  |   Free atom volume        :    128.09585439
  |   Hirshfeld volume        :    120.93923143
  |   Hirshfeld dipole vector :      0.00000000       0.00000000       0.00000000
  |   Hirshfeld dipole moment :      0.00000000
  |   Hirshfeld second moments:      0.21573475       0.00790817      -0.00000000
  |                                  0.00790817       0.21573475       0.00000000
  |                                 -0.00000000       0.00000000       0.20939722
  ----------------------------------------------------------------------
  | Atom     6: Rh
  |   Hirshfeld charge        :      0.51207609
  |   Free atom volume        :    128.09585439
  |   Hirshfeld volume        :    120.93923142
  |   Hirshfeld dipole vector :     -0.00000000      -0.00000000      -0.00000000
  |   Hirshfeld dipole moment :      0.00000000
  |   Hirshfeld second moments:      0.21573475      -0.00790817       0.00000000
  |                                 -0.00790817       0.21573475       0.00000000
  |                                  0.00000000       0.00000000       0.20939722
  ----------------------------------------------------------------------

  Post-scf processing of Kohn-Sham eigenvalues on a denser k-point grid.
  | Using dos_kgrid_factors to calculate post-scf total density of states.
  | Electron chemical potential:    -5.760217593172 eV.
  Integrating Hamiltonian matrix: batch-based integration.
  Time summed over all CPUs for integration: real work        7.433 s, elapsed        7.800 s
  Processing batch of k-points:     1     1     1
  Processing batch of k-points:     1     1     2
  Processing batch of k-points:     1     1     3
  Processing batch of k-points:     1     2     1
  Processing batch of k-points:     1     2     2
  Processing batch of k-points:     1     2     3
  Processing batch of k-points:     1     3     1
  Processing batch of k-points:     1     3     2
  Processing batch of k-points:     1     3     3
  Processing batch of k-points:     2     1     1
  Processing batch of k-points:     2     1     2
  Processing batch of k-points:     2     1     3
  Processing batch of k-points:     2     2     1
  Processing batch of k-points:     2     2     2
  Processing batch of k-points:     2     2     3
  Processing batch of k-points:     2     3     1
  Processing batch of k-points:     2     3     2
  Processing batch of k-points:     2     3     3
  Processing batch of k-points:     3     1     1
  Processing batch of k-points:     3     1     2
  Processing batch of k-points:     3     1     3
  Processing batch of k-points:     3     2     1
  Processing batch of k-points:     3     2     2
  Processing batch of k-points:     3     2     3
  Processing batch of k-points:     3     3     1
  Processing batch of k-points:     3     3     2
  Processing batch of k-points:     3     3     3
  | writing perturbative DOS (shifted by electron chemical potential) to file KS_dos_total.dat
  | writing perturbative DOS (raw data) to file KS_dos_total_raw.dat

  -------------------------------------------------------------------
  Writing the requested band structure output:
  -------------------------------------------------------------------

  Integrating Hamiltonian matrix: batch-based integration.
  Time summed over all CPUs for integration: real work        7.439 s, elapsed        7.817 s

  Treating all   20 k-points in band plot segment #   1:


  "Band gap" along reciprocal space direction number:    1
  | Lowest unoccupied state:      -5.70440378 eV
  | Highest occupied state :      -5.79461841 eV
  | Energy difference      :       0.09021463 eV


  Treating all   20 k-points in band plot segment #   2:


  "Band gap" along reciprocal space direction number:    2
  | Lowest unoccupied state:      -5.73913247 eV
  | Highest occupied state :      -5.78956270 eV
  | Energy difference      :       0.05043023 eV


  Treating all   20 k-points in band plot segment #   3:


  "Band gap" along reciprocal space direction number:    3
  | Lowest unoccupied state:      -5.73178222 eV
  | Highest occupied state :      -5.82888053 eV
  | Energy difference      :       0.09709831 eV


  Treating all   20 k-points in band plot segment #   4:


  "Band gap" along reciprocal space direction number:    4
  | Lowest unoccupied state:      -5.72281986 eV
  | Highest occupied state :      -5.77570475 eV
  | Energy difference      :       0.05288489 eV


  Treating all   20 k-points in band plot segment #   5:


  "Band gap" along reciprocal space direction number:    5
  | Lowest unoccupied state:      -5.49405559 eV
  | Highest occupied state :      -6.41614237 eV
  | Energy difference      :       0.92208678 eV


  Treating all   20 k-points in band plot segment #   6:


  "Band gap" along reciprocal space direction number:    6
  | Lowest unoccupied state:      -5.73615232 eV
  | Highest occupied state :      -5.80250972 eV
  | Energy difference      :       0.06635739 eV


  Treating all   20 k-points in band plot segment #   7:


  "Band gap" along reciprocal space direction number:    7
  | Lowest unoccupied state:      -5.75603721 eV
  | Highest occupied state :      -5.79124261 eV
  | Energy difference      :       0.03520540 eV


  Treating all   20 k-points in band plot segment #   8:


  "Band gap" along reciprocal space direction number:    8
  | Lowest unoccupied state:      -5.69055256 eV
  | Highest occupied state :      -5.79115442 eV
  | Energy difference      :       0.10060187 eV

  "Band gap" of total set of bands:
  | Lowest unoccupied state:      -5.75603721 eV
  | Highest occupied state :      -5.77570475 eV
  | Energy difference      :       0.01966755 eV


------------------------------------------------------------------------------
  Final output of selected total energy values:

  The following output summarizes some interesting total energy values
  at the end of a run (AFTER all relaxation, molecular dynamics, etc.).

  | Total energy of the DFT / Hartree-Fock s.c.f. calculation      :        -271421.063627650 eV
  | Final zero-broadening corrected energy (caution - metals only) :        -271421.065269191 eV
  | For reference only, the value of 1 Hartree used in FHI-aims is :             27.211384500 eV

  Before relying on these values, please be sure to understand exactly which
  total energy value is referred to by a given number. Different objects may
  all carry the same name 'total energy'. Definitions:

  Total energy of the DFT / Hartree-Fock s.c.f. calculation:
  | Note that this energy does not include ANY quantities calculated after the
  | s.c.f. cycle, in particular not ANY RPA, MP2, etc. many-body perturbation terms.

  Final zero-broadening corrected energy:
  | For metallic systems only, a broadening of the occupation numbers at the Fermi
  | level can be extrapolated back to zero broadening by an electron-gas inspired
  | formula. For all systems that are not real metals, this value can be
  | meaningless and should be avoided.

------------------------------------------------------------------------------

------------------------------------------------------------
          Leaving FHI-aims.
          Date     :  20160715, Time     :  071103.831

          Computational steps:
          | Number of self-consistency cycles          :           24

          Detailed time accounting                     :  max(cpu_time)    wall_clock(cpu1)
          | Total time                                 :       24.009 s          25.513 s
          | Preparation time                           :        0.280 s           0.434 s
          | Grid partitioning                          :        0.056 s           0.058 s
          | Preloading free-atom quantities on grid    :        0.036 s           0.046 s
          | Free-atom superposition energy             :        0.036 s           0.038 s
          | Total time for integrations                :        3.264 s           3.261 s
          | Total time for solution of K.-S. equations :        0.252 s           0.288 s
          | Total time for density & force components  :        7.688 s           7.648 s
          | Total time for mixing & preconditioning    :        2.396 s           2.403 s
          | Total time for Hartree multipole update    :        0.100 s           0.057 s
          | Total time for Hartree multipole sum       :        7.748 s           7.720 s
          | Total time for total energy evaluation     :        0.076 s           0.050 s
          | Total time for scaled ZORA corrections     :        0.000 s           0.000 s

          Have a nice day.
------------------------------------------------------------
