------------------------------------------------------------
          Invoking FHI-aims ...

          When using FHI-aims, please cite the following reference:

          Volker Blum, Ralf Gehrke, Felix Hanke, Paula Havu,
          Ville Havu, Xinguo Ren, Karsten Reuter, and Matthias Scheffler,
          'Ab Initio Molecular Simulations with Numeric Atom-Centered Orbitals',
          Computer Physics Communications 180, 2175-2196 (2009)

          For any questions about FHI-aims, please visit the aimsclub website
          with its forums and wiki. Contributions to both the forums and the
          wiki are warmly encouraged - they are for you, and everyone is welcome there.

------------------------------------------------------------



  Date     :  20200506, Time     :  184436.590
  Time zero on CPU 1             :   0.353540000000000E-01  s.
  Internal wall clock time zero  :           358022676.590  s.

  FHI-aims created a unique identifier for this run for later identification
  aims_uuid : 20776AE6-3B86-4E81-A395-79067B49E48D

  Build configuration of the current instance of FHI-aims
  -------------------------------------------------------
  FHI-aims version      : 200112.2
  Commit number         : 6aec163d7
  CMake host system     : Linux-4.12.14-95.48-default
  CMake version         : 3.5.2
  Fortran compiler      : /mpcdf/soft/SLE_12/packages/x86_64/intel_parallel_studio/2018.4/compilers_and_libraries_2018.5.274/linux/mpi/bin64/mpiifort (Intel) version 18.0.5.20180823
  Fortran compiler flags: -O0 -ip -fp-model precise
  C compiler            : /mpcdf/soft/SLE_12/packages/x86_64/intel/18.0.5/bin/icc (Intel) version 18.0.5.20180823
  C compiler flags      : -O0 -ip -fp-model precise
  C++ compiler          : /mpcdf/soft/SLE_12/packages/x86_64/intel/18.0.5/bin/icpc (Intel) version 18.0.5.20180823
  C++ compiler flags    : -O0 -ip -fp-model precise
  Architecture          :
  Using MPI
  Using Scalapack
  Using C files
  Using LibXC
  Using SPGlib
  Using i-PI
  Using RLSY
  Linking against: /mpcdf/soft/SLE_12/packages/x86_64/intel_parallel_studio/2018.4/mkl/lib/intel64/libmkl_intel_lp64.so
                   /mpcdf/soft/SLE_12/packages/x86_64/intel_parallel_studio/2018.4/mkl/lib/intel64/libmkl_sequential.so
                   /mpcdf/soft/SLE_12/packages/x86_64/intel_parallel_studio/2018.4/mkl/lib/intel64/libmkl_core.so
                   /mpcdf/soft/SLE_12/packages/x86_64/intel_parallel_studio/2018.4/mkl/lib/intel64/libmkl_blacs_intelmpi_lp64.so
                   /mpcdf/soft/SLE_12/packages/x86_64/intel_parallel_studio/2018.4/mkl/lib/intel64/libmkl_scalapack_lp64.so

  Using       32 parallel tasks.
  Task        0 on host draco04 reporting.
  Task        1 on host draco04 reporting.
  Task        2 on host draco04 reporting.
  Task        3 on host draco04 reporting.
  Task        4 on host draco04 reporting.
  Task        5 on host draco04 reporting.
  Task        6 on host draco04 reporting.
  Task        7 on host draco04 reporting.
  Task        8 on host draco04 reporting.
  Task        9 on host draco04 reporting.
  Task       10 on host draco04 reporting.
  Task       11 on host draco04 reporting.
  Task       12 on host draco04 reporting.
  Task       13 on host draco04 reporting.
  Task       14 on host draco04 reporting.
  Task       15 on host draco04 reporting.
  Task       16 on host draco04 reporting.
  Task       17 on host draco04 reporting.
  Task       18 on host draco04 reporting.
  Task       19 on host draco04 reporting.
  Task       20 on host draco04 reporting.
  Task       21 on host draco04 reporting.
  Task       22 on host draco04 reporting.
  Task       23 on host draco04 reporting.
  Task       24 on host draco04 reporting.
  Task       25 on host draco04 reporting.
  Task       26 on host draco04 reporting.
  Task       27 on host draco04 reporting.
  Task       28 on host draco04 reporting.
  Task       29 on host draco04 reporting.
  Task       30 on host draco04 reporting.
  Task       31 on host draco04 reporting.

  Performing system and environment tests:
  | Environment variable OMP_NUM_THREADS correctly set to 1.
  | Maximum stacksize for task 0: unlimited
  | Maximum stacksize for task 1: unlimited
  | Maximum stacksize for task 2: unlimited
  | Maximum stacksize for task 3: unlimited
  | Maximum stacksize for task 4: unlimited
  | Maximum stacksize for task 5: unlimited
  | Maximum stacksize for task 6: unlimited
  | Maximum stacksize for task 7: unlimited
  | Maximum stacksize for task 8: unlimited
  | Maximum stacksize for task 9: unlimited
  | Maximum stacksize for task 10: unlimited
  | Maximum stacksize for task 11: unlimited
  | Maximum stacksize for task 12: unlimited
  | Maximum stacksize for task 13: unlimited
  | Maximum stacksize for task 14: unlimited
  | Maximum stacksize for task 15: unlimited
  | Maximum stacksize for task 16: unlimited
  | Maximum stacksize for task 17: unlimited
  | Maximum stacksize for task 18: unlimited
  | Maximum stacksize for task 19: unlimited
  | Maximum stacksize for task 20: unlimited
  | Maximum stacksize for task 21: unlimited
  | Maximum stacksize for task 22: unlimited
  | Maximum stacksize for task 23: unlimited
  | Maximum stacksize for task 24: unlimited
  | Maximum stacksize for task 25: unlimited
  | Maximum stacksize for task 26: unlimited
  | Maximum stacksize for task 27: unlimited
  | Maximum stacksize for task 28: unlimited
  | Maximum stacksize for task 29: unlimited
  | Maximum stacksize for task 30: unlimited
  | Maximum stacksize for task 31: unlimited
  | Current stacksize for task 0: unlimited
  | Current stacksize for task 1: unlimited
  | Current stacksize for task 2: unlimited
  | Current stacksize for task 3: unlimited
  | Current stacksize for task 4: unlimited
  | Current stacksize for task 5: unlimited
  | Current stacksize for task 6: unlimited
  | Current stacksize for task 7: unlimited
  | Current stacksize for task 8: unlimited
  | Current stacksize for task 9: unlimited
  | Current stacksize for task 10: unlimited
  | Current stacksize for task 11: unlimited
  | Current stacksize for task 12: unlimited
  | Current stacksize for task 13: unlimited
  | Current stacksize for task 14: unlimited
  | Current stacksize for task 15: unlimited
  | Current stacksize for task 16: unlimited
  | Current stacksize for task 17: unlimited
  | Current stacksize for task 18: unlimited
  | Current stacksize for task 19: unlimited
  | Current stacksize for task 20: unlimited
  | Current stacksize for task 21: unlimited
  | Current stacksize for task 22: unlimited
  | Current stacksize for task 23: unlimited
  | Current stacksize for task 24: unlimited
  | Current stacksize for task 25: unlimited
  | Current stacksize for task 26: unlimited
  | Current stacksize for task 27: unlimited
  | Current stacksize for task 28: unlimited
  | Current stacksize for task 29: unlimited
  | Current stacksize for task 30: unlimited
  | Current stacksize for task 31: unlimited
  | Checking for scalapack...
  | Testing pdtran()...
  | All pdtran() tests passed.

  Obtaining array dimensions for all initial allocations:
  
  -----------------------------------------------------------------------
  Parsing control.in (first pass over file, find array dimensions only).
  The contents of control.in will be repeated verbatim below
  unless switched off by setting 'verbatim_writeout .false.' .
  in the first line of control.in .
  -----------------------------------------------------------------------
  
  #===============================================================================
  # FHI-aims file: /u/dansp/gen_error_data/test_run/expansion_None/pbe/light/minimal/atomic_zora/8/C4Ta4/control.in
  # Created using the Atomic Simulation Environment (ASE)
  # Wed May  6 18:43:13 2020
  #===============================================================================
  sc_accuracy_rho                    1e-05
  sc_accuracy_eev                    1e-05
  sc_accuracy_etot                   1e-05
  sc_iter_limit                      8000
  occupation_type                    fermi 0.1
  spin                               none
  charge                             0.0
  mixer                              pulay
  n_max_pulay                        10
  charge_mix_param                   0.01
  preconditioner                     kerker 1.5
  override_relativity                .true.
  override_illconditioning           .true.
  dos_kgrid_factors                  3 3 3
  output                             atom_proj_dos -20 10 1000 0.01
  output                             dos -20 10 1000 0.01
  output                             quadrupole
  output                             hirshfeld
  k_grid                             12 12 12
  xc                                 pbe
  relativistic                       atomic_zora scalar
  sc_accuracy_forces                 0.0001
  compute_forces                     .true.
  compute_analytical_stress          .true.
  #===============================================================================
  
  ################################################################################
  #
  #  FHI-aims code project
  #  VB, Fritz-Haber Institut, 2009
  #
  #  Suggested "light" defaults for C atom (to be pasted into control.in file)
  #  Be sure to double-check any results obtained with these settings for post-processing,
  #  e.g., with the "tight" defaults and larger basis sets.
  #
  ################################################################################
    species        C
  #     global species definitions
      nucleus             6
      mass                12.0107
  #
      l_hartree           4
  #
      cut_pot             3.5  1.5  1.0
      basis_dep_cutoff    1e-4
  #
      radial_base         34 5.0
      radial_multiplier   1
      angular_grids specified
        division   0.3326   50
        division   0.5710  110
        division   0.7727  194
        division   0.8772  302
  #      division   0.9334  434
  #      division   0.9625  590
  #      division   0.9924  770
  #      division   1.0230  974
  #      division   1.4589 1202
  #     outer_grid  974
       outer_grid 302
  ################################################################################
  #
  #  Definition of "minimal" basis
  #
  ################################################################################
  #     valence basis states
      valence      2  s   2.
      valence      2  p   2.
  #     ion occupancy
      ion_occ      2  s   1.
      ion_occ      2  p   1.
  ################################################################################
  #
  #  Suggested additional basis functions. For production calculations,
  #  uncomment them one after another (the most important basis functions are
  #  listed first).
  #
  #  Constructed for dimers: 1.0 A, 1.25 A, 1.5 A, 2.0 A, 3.0 A
  #
  ################################################################################
  #  "First tier" - improvements: -1214.57 meV to -155.61 meV
  #     hydro 2 p 1.7
  #     hydro 3 d 6
  #     hydro 2 s 4.9
  #  "Second tier" - improvements: -67.75 meV to -5.23 meV
  #     hydro 4 f 9.8
  #     hydro 3 p 5.2
  #     hydro 3 s 4.3
  #     hydro 5 g 14.4
  #     hydro 3 d 6.2
  #  "Third tier" - improvements: -2.43 meV to -0.60 meV
  #     hydro 2 p 5.6
  #     hydro 2 s 1.4
  #     hydro 3 d 4.9
  #     hydro 4 f 11.2
  #  "Fourth tier" - improvements: -0.39 meV to -0.18 meV
  #     hydro 2 p 2.1
  #     hydro 5 g 16.4
  #     hydro 4 d 13.2
  #     hydro 3 s 13.6
  #     hydro 4 f 17.6
  #  Further basis functions - improvements: -0.08 meV and below
  #     hydro 3 s 2
  #     hydro 3 p 6
  #     hydro 4 d 20
  ################################################################################
  #
  #  FHI-aims code project
  #  VB, Fritz-Haber Institut, 2009
  #
  #  Suggested "light" defaults for Ta atom (to be pasted into control.in file)
  #  Be sure to double-check any results obtained with these settings for post-processing,
  #  e.g., with the "tight" defaults and larger basis sets.
  #
  ################################################################################
    species          Ta
  #     global species definitions
      nucleus        73
      mass           180.94788
  #
      l_hartree      4
  #
      cut_pot        3.5  1.5  1.0
      basis_dep_cutoff    1e-4
  #
      radial_base    71  5.0
      radial_multiplier  1
      angular_grids specified
        division   0.3792   50
        division   1.0232  110
        division   1.3396  194
        division   1.5892  302
  #      division   1.8380  434
  #      division   2.1374  590
  #      division   2.2049  770
  #      division   2.2755  974
  #      division   2.8291 1202
  #      outer_grid  974
        outer_grid  302
  ################################################################################
  #
  #  Definition of "minimal" basis
  #
  ################################################################################
  #     valence basis states
      valence      6  s   2.
      valence      5  p   6.
      valence      5  d   3.
      valence      4  f  14.
  #     ion occupancy
      ion_occ      6  s   1.
      ion_occ      5  p   6.
      ion_occ      5  d   2.
      ion_occ      4  f  14.
  ################################################################################
  #
  #  Suggested additional basis functions. For production calculations,
  #  uncomment them one after another (the most important basis functions are
  #  listed first).
  #
  #  Constructed for dimers: 1.85, 2.12, 2.625, 3.25, 4.50 AA
  #
  ################################################################################
  #
  #  "First tier" - improvements: -461.64 meV to -31.84 meV
  #     hydro 4 f 7
  #     hydro 4 d 5.6
  #     ionic 6 p auto
  #     hydro 5 g 11.6
  #     ionic 6 s auto
  #  "Second tier" - improvements: -26.62 meV to -1.73 meV
  #     ionic 5 d auto
  #     hydro 6 h 15.2
  #     hydro 4 f 9.2
  #     hydro 5 g 17.6
  #     hydro 4 p 4.7
  #     hydro 1 s 0.5
  #  "Third tier" - max. impr. -6.67 meV, min. impr. -0.18 meV
  #     hydro 5 d 8
  #     hydro 6 h 20
  #     hydro 5 g 38
  #     hydro 5 f 8.4
  #     hydro 2 p 1.3
  #     hydro 5 s 9.4
  #  "Fourth tier" - max. impr. -0.76 meV, min. impr. -0.13 meV
  #     hydro 5 g 10.8
  #     hydro 6 p 14.8
  #     hydro 6 h 20.4
  #     hydro 5 f 21.2
  #     hydro 4 p 11.6
  #     hydro 4 f 3.9
  #     hydro 6 d 13.6
  #     hydro 4 s 4.6
  
  -----------------------------------------------------------------------
  Completed first pass over input file control.in .
  -----------------------------------------------------------------------
  
  
  -----------------------------------------------------------------------
  Parsing geometry.in (first pass over file, find array dimensions only).
  The contents of geometry.in will be repeated verbatim below
  unless switched off by setting 'verbatim_writeout .false.' .
  in the first line of geometry.in .
  -----------------------------------------------------------------------
  
  #=======================================================
  # FHI-aims file: /u/dansp/gen_error_data/test_run/expansion_None/pbe/light/minimal/atomic_zora/8/C4Ta4/geometry.in
  # Created using the Atomic Simulation Environment (ASE)
  # Wed May  6 18:43:13 2020
  #=======================================================
  lattice_vector 4.4530000000000003 0.0000000000000000 0.0000000000000000
  lattice_vector 0.0000000000000003 4.4530000000000003 0.0000000000000000
  lattice_vector 0.0000000000000003 0.0000000000000003 4.4530000000000003
  atom_frac 0.5000000000000000 0.5000000000000000 0.5000000000000000 C
  atom_frac 0.5000000000000000 0.0000000000000000 0.0000000000000000 C
  atom_frac -0.0000000000000000 0.5000000000000000 0.0000000000000000 C
  atom_frac -0.0000000000000000 -0.0000000000000000 0.5000000000000000 C
  atom_frac 0.0000000000000000 0.0000000000000000 0.0000000000000000 Ta
  atom_frac 0.0000000000000000 0.5000000000000000 0.5000000000000000 Ta
  atom_frac 0.5000000000000000 -0.0000000000000000 0.5000000000000000 Ta
  atom_frac 0.5000000000000000 0.5000000000000000 0.0000000000000000 Ta
  
  -----------------------------------------------------------------------
  Completed first pass over input file geometry.in .
  -----------------------------------------------------------------------
  

  Basic array size parameters:
  | Number of species                 :        2
  | Number of atoms                   :        8
  | Number of lattice vectors         :        3
  | Max. basis fn. angular momentum   :        3
  | Max. atomic/ionic basis occupied n:        6
  | Max. number of basis fn. types    :        1
  | Max. radial fns per species/type  :       14
  | Max. logarithmic grid size        :     1482
  | Max. radial integration grid size :       71
  | Max. angular integration grid size:      302
  | Max. angular grid division number :        8
  | Radial grid for Hartree potential :     1482
  | Number of spin channels           :        1

------------------------------------------------------------
          Reading file control.in.
------------------------------------------------------------
  Convergence accuracy of self-consistent charge density:  0.1000E-04
  Convergence accuracy of sum of eigenvalues:  0.1000E-04
  Convergence accuracy of total energy:  0.1000E-04
  Maximum number of s.-c. iterations  :  8000
  Occupation type: Fermi broadening, width =   0.100000E+00 eV.
  Spin treatment: No spin polarisation.
  Charge =   0.000000E+00: Neutral system requested explicitly.
  Using pulay charge density mixing.
  Pulay mixing - number of memorized iterations:   10
  Charge density mixing - mixing parameter:     0.0100
  Using Kerker preconditioning with damping at q_0 =     0.1500E+01
  override_relativity: Explicitly overriding any built-in relativity checks.
  If you use this flag, you should really know what you are doing.
  override_illconditioning: Explicitly overriding any built-in checks for an ill-conditioned overlap matrix.
  *** WARNING: If you use this flag, you should really know what you are doing.
  *** DO NOT keep this flag set by default in all your control.in files.
  Found k-point grid multipliers for perturbative DOS :         3         3         3
  Calculating atom-projected density of states with
  | energy interval :-20.000000 10.000000
  | points & broadening :  1000  0.010000
  Calculating density of states with
  | energy interval :-20.000000 10.000000
  | points & broadening :  1000  0.010000
  quadrupole moment will be written out.
  Hirshfeld charge analysis will be performed.
  Found k-point grid:        12        12        12
  XC: Using PBE gradient-corrected functionals.
  Scalar relativistic treatment of kinetic energy: on-site free-atom approximation to ZORA.
  Convergence accuracy of forces:  0.1000E-03
  Forces will be computed.
 
  Reading configuration options for species C                   .
  | Found nuclear charge :   6.0000
  | Found atomic mass :    12.0107000000000      amu
  | Found l_max for Hartree potential  :   4
  | Found cutoff potl. onset [A], width [A], scale factor :    3.50000    1.50000    1.00000
  | Threshold for basis-dependent cutoff potential is   0.100000E-03
  | Found data for basic radial integration grid :    34 points, outermost radius =    5.000 A
  | Found multiplier for basic radial grid :   1
  | Found angular grid specification: user-specified.
  | Specified grid contains     5 separate shells.
  | Check grid settings after all constraints further below.
  | Found free-atom valence shell :  2 s   2.000
  | Found free-atom valence shell :  2 p   2.000
  | No ionic wave fns used. Skipping ion_occ.
  | No ionic wave fns used. Skipping ion_occ.
  Species C                   : Missing cutoff potential type.
  Defaulting to exp(1/x)/(1-x)^2 type cutoff potential.
  Species C : No 'logarithmic' tag. Using default grid for free atom:
  | Default logarithmic grid data [bohr] : 0.1000E-03 0.1000E+03 0.1012E+01
  Species C : On-site basis accuracy parameter (for Gram-Schmidt orthonormalisation) not specified.
  Using default value basis_acc =  0.1000000E-03.
  Species C                   : Using default innermost maximum threshold i_radial=  2 for radial functions.
  Species C                   : Default cutoff onset for free atom density etc. : 0.35000000E+01 AA.
  Species C                   : Basic radial grid will be enhanced according to radial_multiplier =   1, to contain    34 grid points.
 
  Reading configuration options for species Ta                  .
  | Found nuclear charge :  73.0000
  | Found atomic mass :    180.947880000000      amu
  | Found l_max for Hartree potential  :   4
  | Found cutoff potl. onset [A], width [A], scale factor :    3.50000    1.50000    1.00000
  | Threshold for basis-dependent cutoff potential is   0.100000E-03
  | Found data for basic radial integration grid :    71 points, outermost radius =    5.000 A
  | Found multiplier for basic radial grid :   1
  | Found angular grid specification: user-specified.
  | Specified grid contains     5 separate shells.
  | Check grid settings after all constraints further below.
  | Found free-atom valence shell :  6 s   2.000
  | Found free-atom valence shell :  5 p   6.000
  | Found free-atom valence shell :  5 d   3.000
  | Found free-atom valence shell :  4 f  14.000
  | No ionic wave fns used. Skipping ion_occ.
  | No ionic wave fns used. Skipping ion_occ.
  | No ionic wave fns used. Skipping ion_occ.
  | No ionic wave fns used. Skipping ion_occ.
  Species Ta                  : Missing cutoff potential type.
  Defaulting to exp(1/x)/(1-x)^2 type cutoff potential.
  Species Ta: No 'logarithmic' tag. Using default grid for free atom:
  | Default logarithmic grid data [bohr] : 0.1000E-03 0.1000E+03 0.1012E+01
  Species Ta: On-site basis accuracy parameter (for Gram-Schmidt orthonormalisation) not specified.
  Using default value basis_acc =  0.1000000E-03.
  Species Ta                  : Using default innermost maximum threshold i_radial=  2 for radial functions.
  Species Ta                  : Default cutoff onset for free atom density etc. : 0.35000000E+01 AA.
  Species Ta                  : Basic radial grid will be enhanced according to radial_multiplier =   1, to contain    71 grid points.
 
  Finished reading input file 'control.in'. Consistency checks are next.
 
  MPI_IN_PLACE appears to work with this MPI implementation.
  | Keeping use_mpi_in_place .true. (see manual).
  Target number of points in a grid batch is not set. Defaulting to  100
  Method for grid partitioning is not set. Defaulting to parallel hash+maxmin partitioning.
  Batch size limit is not set. Defaulting to    200
  By default, will store active basis functions for each batch.
  If in need of memory, prune_basis_once .false. can be used to disable this option.
  communication_type for Hartree potential was not specified.
  Defaulting to calc_hartree .
  Pulay mixer: Number of initial linear mixing iterations not set.
  Defaulting to    0 iterations.
  Work space size for distributed Hartree potential not set.
  Defaulting to   0.200000E+03 MB.
  Algorithm-dependent basis array size parameters:
  | n_max_pulay                         :       10
  Presetting      1001 iterations before the initial mixing cycle
  is restarted anyway using the sc_init_iter criterion / keyword.
  Presetting a factor      1.000 between actual scf density residual
  and density convergence criterion sc_accuracy_rho below which sc_init_iter
  takes no effect.
  Geometry relaxation not requested: no relaxation will be performed.
  Analytical stress will be computed.
  Analytical stress calculation: Only the upper triangle is calculated.
                                 Final output is symmetrized.
  Analytical stress calculation: scf convergence accuracy of stress not set.
                                 Analytical stress self-consistency will not be checked explicitly.
                                 Be sure to set other criteria like sc_accuracy_rho tight enough.
  Handling of forces: Unphysical translation and rotation will be removed from forces.
  No accuracy limit for integral partition fn. given. Defaulting to  0.1000E-14.
  No threshold value for u(r) in integrations given. Defaulting to  0.1000E-05.
  No accuracy for occupation numbers given. Defaulting to  0.1000E-12.
  No threshold value for occupation numbers given. Defaulting to  0.0000E+00.
  No accuracy for fermi level given. Defaulting to  0.1000E-19.
  Maximum # of iterations to find E_F not set. Defaulting to  200.
  Preferred method for the eigenvalue solver ('KS_method') not specified in 'control.in'.
  Defaulting to serial version, LAPACK (via ELSI), since more k-points than CPUs available.
  Will not use alltoall communication since running on < 1024 CPUs.
  Threshold for basis singularities not set.
  Default threshold for basis singularities:  0.1000E-04
  partition_type (choice of integration weights) for integrals was not specified.
  | Using a version of the partition function of Stratmann and coworkers ('stratmann_sparse').
  | At each grid point, the set of atoms used to build the partition table is smoothly restricted to
  | only those atoms whose free-atom density would be non-zero at that grid point.
  Partitioning for Hartree potential was not defined. Using partition_type for integrals.
  | Adjusted default value of keyword multip_moments_threshold to:       0.10000000E-11
  | This value may affect high angular momentum components of the Hartree potential in periodic systems.
  Angular momentum expansion for Kerker preconditioner not set explicitly.
  | Using default value of   0
  No explicit requirement for turning off preconditioner.
  | By default, it will be turned off when the charge convergence reaches
  | sc_accuracy_rho  =   0.100000E-04
  | sc_accuracy_eev  =   0.100000E-04
  | sc_accuracy_etot =   0.100000E-04
  No special mixing parameter while Kerker preconditioner is on.
  Using default: charge_mix_param =     0.0100.
  No q(lm)/r^(l+1) cutoff set for long-range Hartree potential.
  | Using default value of  0.100000E-09 .
  | Verify using the multipole_threshold keyword.
  Defaulting to new monopole extrapolation.
  Density update method: automatic selection selected.
  Using density matrix based charge density update.
  Using density matrix based charge density update.
  Using packed matrix style: index .
  Defaulting to use time-reversal symmetry for k-point grid.
  Charge integration errors on the 3D integration grid will be compensated
  by explicit normalization and distribution of residual charges.
  Use the "compensate_multipole_errors" flag to change this behaviour.
------------------------------------------------------------


------------------------------------------------------------
          Reading geometry description geometry.in.
------------------------------------------------------------
  Input structure read successfully.
  The structure contains        8 atoms,  and a total of        316.000 electrons.

  Input geometry:
  | Unit cell:
  |        4.45300000        0.00000000        0.00000000
  |        0.00000000        4.45300000        0.00000000
  |        0.00000000        0.00000000        4.45300000
  | Atomic structure:
  |       Atom                x [A]            y [A]            z [A]
  |    1: Species C             2.22650000        2.22650000        2.22650000
  |    2: Species C             2.22650000        0.00000000        0.00000000
  |    3: Species C             0.00000000        2.22650000        0.00000000
  |    4: Species C             0.00000000        0.00000000        2.22650000
  |    5: Species Ta            0.00000000        0.00000000        0.00000000
  |    6: Species Ta            0.00000000        2.22650000        2.22650000
  |    7: Species Ta            2.22650000        0.00000000        2.22650000
  |    8: Species Ta            2.22650000        2.22650000        0.00000000

  Lattice parameters for 3D lattice (in Angstroms) :     4.453000    4.453000    4.453000
  Angle(s) between unit vectors (in degrees)       :    90.000000   90.000000   90.000000

  | The smallest distance between any two atoms is         2.22650000 AA.
  | The first atom of this pair is atom number                      1 .
  | The second atom of this pair is atom number                     7 .
  | Wigner-Seitz cell of the first atom image           0     0     0 .
  | (The Wigner-Seitz cell of the second atom is 0 0 0  by definition.)

  Symmetry information by spglib:
  | Precision set to  0.1E-04
  | Number of Operations  : 192
  | Space group           : 225
  | International         : Fm-3m
  | Schoenflies           : Oh^5

  Quantities derived from the lattice vectors:
  | Reciprocal lattice vector 1:  1.411001 -0.000000 -0.000000
  | Reciprocal lattice vector 2:  0.000000  1.411001 -0.000000
  | Reciprocal lattice vector 3: -0.000000 -0.000000  1.411001
  | Unit cell volume                               :   0.882995E+02  A^3

  Range separation radius for Ewald summation (hartree_convergence_parameter):      3.09753113 bohr.

  Fractional coordinates:
                         L1                L2                L3
       atom_frac         0.50000000        0.50000000        0.50000000  C
       atom_frac         0.50000000        0.00000000       -0.00000000  C
       atom_frac         0.00000000        0.50000000       -0.00000000  C
       atom_frac         0.00000000        0.00000000        0.50000000  C
       atom_frac         0.00000000        0.00000000        0.00000000  Ta
       atom_frac         0.00000000        0.50000000        0.50000000  Ta
       atom_frac         0.50000000        0.00000000        0.50000000  Ta
       atom_frac         0.50000000        0.50000000       -0.00000000  Ta

  Number of empty states per atom not set in control.in - providing a guess from actual geometry.
  | Total number of empty states used during s.c.f. cycle:       48
  If you use a very high smearing, use empty_states (per atom!) in control.in to increase this value.

  Structure-dependent array size parameters: 
  | Maximum number of distinct radial functions  :       17
  | Maximum number of basis functions            :      180
  | Number of Kohn-Sham states (occupied + empty):      206
------------------------------------------------------------

------------------------------------------------------------
          Preparing all fixed parts of the calculation.
------------------------------------------------------------
  Determining machine precision:
    2.225073858507201E-308
  Setting up grids for atomic and cluster calculations.

  Creating wave function, potential, and density for free atoms.

  Species: C

  List of occupied orbitals and eigenvalues:
    n    l              occ      energy [Ha]    energy [eV]
    1    0           2.0000       -10.046810      -273.3876
    2    0           2.0000        -0.503128       -13.6908
    2    1           2.0000        -0.191849        -5.2205


  Species: Ta

  List of occupied orbitals and eigenvalues:
    n    l              occ      energy [Ha]    energy [eV]
    1    0           2.0000     -2673.735108    -72756.0341
    2    0           2.0000      -431.901827    -11752.6467
    3    0           2.0000       -97.803411     -2661.3662
    4    0           2.0000       -19.855205      -540.2876
    5    0           2.0000        -2.664044       -72.4923
    6    0           2.0000        -0.187378        -5.0988
    2    1           6.0000      -377.923870    -10283.8317
    3    1           6.0000       -82.039535     -2232.4093
    4    1           6.0000       -14.713441      -400.3731
    5    1           6.0000        -1.430262       -38.9194
    3    2          10.0000       -63.725435     -1734.0573
    4    2          10.0000        -8.148492      -221.7318
    5    2           3.0000        -0.118425        -3.2225
    4    3          14.0000        -0.896149       -24.3855

  Creating fixed part of basis set: Ionic, confined, hydrogenic.

  Adding cutoff potential to free-atom effective potential.
  Creating atomic-like basis functions for current effective potential.

  Species C                   :

  List of atomic basis orbitals and eigenvalues:
    n    l      energy [Ha]    energy [eV]    outer radius [A]
    1    0       -10.046810      -273.3876       1.934409
    2    0        -0.503128       -13.6908       4.496620
    2    1        -0.191849        -5.2205       4.551928


  Species Ta                  :

  List of atomic basis orbitals and eigenvalues:
    n    l      energy [Ha]    energy [eV]    outer radius [A]
    1    0     -2673.735108    -72756.0341       0.132354
    2    0      -431.901827    -11752.6467       0.347671
    3    0       -97.803411     -2661.3662       0.732879
    4    0       -19.855205      -540.2876       1.563887
    5    0        -2.664044       -72.4923       3.911997
    6    0        -0.187378        -5.0988       4.585837
    2    1      -377.923870    -10283.8317       0.360658
    3    1       -82.039535     -2232.4093       0.788656
    4    1       -14.713441      -400.3731       1.767249
    5    1        -1.430262       -38.9194       4.313923
    3    2       -63.725435     -1734.0573       0.848678
    4    2        -8.148492      -221.7318       2.229325
    5    2        -0.118425        -3.2225       4.585837
    4    3        -0.896149       -24.3855       4.261507

  Assembling full basis from fixed parts.
  | Species C :   atomic orbital   1 s accepted.
  | Species C :   atomic orbital   2 s accepted.
  | Species C :   atomic orbital   2 p accepted.
  | Species Ta :   atomic orbital   1 s accepted.
  | Species Ta :   atomic orbital   2 s accepted.
  | Species Ta :   atomic orbital   3 s accepted.
  | Species Ta :   atomic orbital   4 s accepted.
  | Species Ta :   atomic orbital   5 s accepted.
  | Species Ta :   atomic orbital   6 s accepted.
  | Species Ta :   atomic orbital   2 p accepted.
  | Species Ta :   atomic orbital   3 p accepted.
  | Species Ta :   atomic orbital   4 p accepted.
  | Species Ta :   atomic orbital   5 p accepted.
  | Species Ta :   atomic orbital   3 d accepted.
  | Species Ta :   atomic orbital   4 d accepted.
  | Species Ta :   atomic orbital   5 d accepted.
  | Species Ta :   atomic orbital   4 f accepted.
  Reducing total number of  Kohn-Sham states to      180.
 
  Basis size parameters after reduction:
  | Total number of radial functions:       17
  | Total number of basis functions :      180
 
  Per-task memory consumption for arrays in subroutine allocate_ext:
  |           6.455032MB.
  Testing on-site integration grid accuracy.
  |  Species  Function  <phi|h_atom|phi> (log., in eV)  <phi|h_atom|phi> (rad., in eV)
           1        1               -273.3876219248               -273.3875919908
           1        2                -13.6908909459                -13.6909577992
           1        3                 -5.2222267983                 -5.2237454471
           2        4             -72756.0340732834             -72755.7562312232 ***
           2        5             -11752.6466881046             -11752.6415234977
           2        6              -2661.3662275665              -2661.3659578006
           2        7               -540.2876174469               -540.2875990657
           2        8                -72.4923280686                -72.4923267384
           2        9                 -5.1148812284                 -5.1211927567
           2       10             -10283.8317385237             -10283.8317440062
           2       11              -2232.4093223640              -2232.4093103303
           2       12               -400.3730949258               -400.3730911075
           2       13                -38.9194173266                -38.9194167302
           2       14              -1734.0573247514              -1734.0573194234
           2       15               -221.7317564149               -221.7317545449
           2       16                 -3.2269724385                 -3.2287717974
           2       17                -24.3854549565                -24.3854546876
 * Note: Onsite integrals marked "***" above are less accurate than
 * onsite_accuracy_threshold =    0.03000 eV. Usually, this is harmless.
 * However, one integral did have a negative value. This integral could be important.
 * When in doubt, tighten the "radial" and/or "radial_multiplier" flags to check.

  Preparing densities etc. for the partition functions (integrals / Hartree potential).

  Preparations completed.
  max(cpu_time)          :      0.811 s.
  Wall clock time (cpu1) :      0.948 s.
------------------------------------------------------------

------------------------------------------------------------
          Begin self-consistency loop: Initialization.

          Date     :  20200506, Time     :  184439.097
------------------------------------------------------------

  Initializing index lists of integration centers etc. from given atomic structure:
  Mapping all atomic coordinates to central unit cell.

  Initializing the k-points
  Using symmetry for reducing the k-points
  | k-points reduced from:     1728 to      868
  | Number of k-points                             :       868
  The eigenvectors in the calculations are COMPLEX.
  | K-points in task   0:        27
  | K-points in task   1:        28
  | K-points in task   2:        28
  | K-points in task   3:        28
  | K-points in task   4:        28
  | K-points in task   5:        27
  | K-points in task   6:        27
  | K-points in task   7:        27
  | K-points in task   8:        27
  | K-points in task   9:        27
  | K-points in task  10:        27
  | K-points in task  11:        27
  | K-points in task  12:        27
  | K-points in task  13:        27
  | K-points in task  14:        27
  | K-points in task  15:        27
  | K-points in task  16:        27
  | K-points in task  17:        27
  | K-points in task  18:        27
  | K-points in task  19:        27
  | K-points in task  20:        27
  | K-points in task  21:        27
  | K-points in task  22:        27
  | K-points in task  23:        27
  | K-points in task  24:        27
  | K-points in task  25:        27
  | K-points in task  26:        27
  | K-points in task  27:        27
  | K-points in task  28:        27
  | K-points in task  29:        27
  | K-points in task  30:        27
  | K-points in task  31:        27
  | Number of basis functions in the Hamiltonian integrals :      2286
  | Number of basis functions in a single unit cell        :       180
  | Number of centers in hartree potential         :      1136
  | Number of centers in hartree multipole         :       696
  | Number of centers in electron density summation:       552
  | Number of centers in basis integrals           :       576
  | Number of centers in integrals                 :       251
  | Number of centers in hamiltonian               :       552
  | Consuming       1274 KiB for k_phase.
  | Number of super-cells (origin) [n_cells]                     :         729
  | Number of super-cells (after PM_index) [n_cells]             :          94
  | Number of super-cells in hamiltonian [n_cells_in_hamiltonian]:          94
  | Size of matrix packed + index [n_hamiltonian_matrix_size] :      226885
  | Estimated reciprocal-space cutoff momentum G_max:         3.04656529 bohr^-1 .
  | Reciprocal lattice points for long-range Hartree potential:     256
  Partitioning the integration grid into batches with parallel hashing+maxmin method.
  | Number of batches:      888
  | Maximal batch size:     113
  | Minimal batch size:      54
  | Average batch size:      66.514
  | Standard deviation of batch sizes:      14.222

  Integration load balanced across    32 MPI tasks.
  Work distribution over tasks is as follows:
  Task     0 has       1824 integration points.
  Task     1 has       1839 integration points.
  Task     2 has       1846 integration points.
  Task     3 has       1852 integration points.
  Task     4 has       1868 integration points.
  Task     5 has       1852 integration points.
  Task     6 has       1845 integration points.
  Task     7 has       1855 integration points.
  Task     8 has       1848 integration points.
  Task     9 has       1841 integration points.
  Task    10 has       1843 integration points.
  Task    11 has       1883 integration points.
  Task    12 has       1854 integration points.
  Task    13 has       1869 integration points.
  Task    14 has       1843 integration points.
  Task    15 has       1814 integration points.
  Task    16 has       1860 integration points.
  Task    17 has       1847 integration points.
  Task    18 has       1858 integration points.
  Task    19 has       1848 integration points.
  Task    20 has       1846 integration points.
  Task    21 has       1836 integration points.
  Task    22 has       1847 integration points.
  Task    23 has       1849 integration points.
  Task    24 has       1850 integration points.
  Task    25 has       1825 integration points.
  Task    26 has       1828 integration points.
  Task    27 has       1841 integration points.
  Task    28 has       1840 integration points.
  Task    29 has       1827 integration points.
  Task    30 has       1833 integration points.
  Task    31 has       1853 integration points.
  Initializing partition tables, free-atom densities, potentials, etc. across the integration grid (initialize_grid_storage).
  | initialize_grid_storage: Actual outermost partition radius vs. multipole_radius_free
  | (-- VB: in principle, multipole_radius_free should be larger, hence this output)
  | Species        1: Confinement radius =              4.999999999999999 AA, multipole_radius_free =              5.019602836301480 AA.
  | Species        1: outer_partition_radius set to              5.019602836301480 AA .
  | Species        2: Confinement radius =              4.999999999999999 AA, multipole_radius_free =              5.056995592571627 AA.
  | Species        2: outer_partition_radius set to              5.056995592571627 AA .
  | The sparse table of interatomic distances needs       1412.64 kbyte instead of      2654.21 kbyte of memory.
  | Net number of integration points:    59064
  | of which are non-zero points    :    47960
  | Numerical average free-atom electrostatic potential    :    -31.80859799 eV
  Renormalizing the initial density to the exact electron count on the 3D integration grid.
  | Initial density: Formal number of electrons (from input files) :     316.0000000000
  | Integrated number of electrons on 3D grid     :     316.0214077991
  | Charge integration error                      :       0.0214077991
  | Normalization factor for density and gradient :       0.9999322584
  Renormalizing the free-atom superposition density to the exact electron count on the 3D integration grid.
  | Formal number of electrons (from input files) :     316.0000000000
  | Integrated number of electrons on 3D grid     :     316.0214077991
  | Charge integration error                      :       0.0214077991
  | Normalization factor for density and gradient :       0.9999322584
  Obtaining max. number of non-zero basis functions in each batch (get_n_compute_maxes).
  | Maximal number of non-zero basis functions:      535 in task     0
  | Maximal number of non-zero basis functions:      522 in task     1
  | Maximal number of non-zero basis functions:      522 in task     2
  | Maximal number of non-zero basis functions:      548 in task     3
  | Maximal number of non-zero basis functions:      532 in task     4
  | Maximal number of non-zero basis functions:      527 in task     5
  | Maximal number of non-zero basis functions:      541 in task     6
  | Maximal number of non-zero basis functions:      541 in task     7
  | Maximal number of non-zero basis functions:      540 in task     8
  | Maximal number of non-zero basis functions:      535 in task     9
  | Maximal number of non-zero basis functions:      547 in task    10
  | Maximal number of non-zero basis functions:      554 in task    11
  | Maximal number of non-zero basis functions:      541 in task    12
  | Maximal number of non-zero basis functions:      552 in task    13
  | Maximal number of non-zero basis functions:      552 in task    14
  | Maximal number of non-zero basis functions:      535 in task    15
  | Maximal number of non-zero basis functions:      545 in task    16
  | Maximal number of non-zero basis functions:      535 in task    17
  | Maximal number of non-zero basis functions:      554 in task    18
  | Maximal number of non-zero basis functions:      531 in task    19
  | Maximal number of non-zero basis functions:      526 in task    20
  | Maximal number of non-zero basis functions:      522 in task    21
  | Maximal number of non-zero basis functions:      535 in task    22
  | Maximal number of non-zero basis functions:      540 in task    23
  | Maximal number of non-zero basis functions:      525 in task    24
  | Maximal number of non-zero basis functions:      526 in task    25
  | Maximal number of non-zero basis functions:      533 in task    26
  | Maximal number of non-zero basis functions:      540 in task    27
  | Maximal number of non-zero basis functions:      533 in task    28
  | Maximal number of non-zero basis functions:      548 in task    29
  | Maximal number of non-zero basis functions:      527 in task    30
  | Maximal number of non-zero basis functions:      541 in task    31
  Allocating       13.348 MB for KS_eigenvector_complex
  Integrating Hamiltonian matrix: batch-based integration.
  Time summed over all CPUs for integration: real work       12.855 s, elapsed       18.983 s => Consider using load balancing!
  Integrating overlap matrix.
  Time summed over all CPUs for integration: real work       10.382 s, elapsed       11.743 s
  Decreasing sparse matrix size:
  | Tolerance:  0.1000E-12
  Hamiltonian matrix
  | Array has   134002 nonzero elements out of   226885 elements
  | Sparsity factor is 0.409
  Overlap matrix
  | Array has   120260 nonzero elements out of   226885 elements
  | Sparsity factor is 0.470
  New size of hamiltonian matrix:      136541

  Updating Kohn-Sham eigenvalues and eigenvectors using ELSI and the (modified) LAPACK eigensolver.
  Singularity check in k-point 32, task 0 (analysis for other k-points/tasks may follow below):
  Overlap matrix is not singular
  | Lowest and highest eigenvalues :  0.8557E-01,  0.4314E+01
  Finished singularity check of overlap matrix
  | Time :     0.115 s
  Starting LAPACK eigensolver
  Finished Cholesky decomposition
  | Time :     0.089 s
  Finished transformation to standard eigenproblem
  | Time :     0.003 s
  Finished solving standard eigenproblem
  | Time :     0.012 s
  Finished back-transformation of eigenvectors
  | Time :     0.001 s

  Obtaining occupation numbers and chemical potential using ELSI.
  | Chemical potential (Fermi level):    -5.99757052 eV
  Writing Kohn-Sham eigenvalues.
  K-point:       1 at    0.000000    0.000000    0.000000 (in units of recip. lattice)

  State    Occupation    Eigenvalue [Ha]    Eigenvalue [eV]
      1       2.00000       -2673.736475       -72756.07127
      2       2.00000       -2673.736475       -72756.07127
      3       2.00000       -2673.736475       -72756.07127
      4       2.00000       -2673.736475       -72756.07127
      5       2.00000        -431.915992       -11753.03212
      6       2.00000        -431.915992       -11753.03212
      7       2.00000        -431.915992       -11753.03212
      8       2.00000        -431.915992       -11753.03212
      9       2.00000        -377.939501       -10284.25708
     10       2.00000        -377.939501       -10284.25708
     11       2.00000        -377.939501       -10284.25708
     12       2.00000        -377.939501       -10284.25708
     13       2.00000        -377.939501       -10284.25708
     14       2.00000        -377.939501       -10284.25708
     15       2.00000        -377.939501       -10284.25708
     16       2.00000        -377.939501       -10284.25708
     17       2.00000        -377.939501       -10284.25708
     18       2.00000        -377.939501       -10284.25708
     19       2.00000        -377.939501       -10284.25708
     20       2.00000        -377.939501       -10284.25708
     21       2.00000         -97.819425        -2661.80199
     22       2.00000         -97.819425        -2661.80199
     23       2.00000         -97.819425        -2661.80199
     24       2.00000         -97.819425        -2661.80199
     25       2.00000         -82.055884        -2232.85421
     26       2.00000         -82.055884        -2232.85421
     27       2.00000         -82.055884        -2232.85421
     28       2.00000         -82.055884        -2232.85421
     29       2.00000         -82.055884        -2232.85421
     30       2.00000         -82.055884        -2232.85421
     31       2.00000         -82.055884        -2232.85421
     32       2.00000         -82.055884        -2232.85421
     33       2.00000         -82.055884        -2232.85421
     34       2.00000         -82.055884        -2232.85421
     35       2.00000         -82.055884        -2232.85421
     36       2.00000         -82.055884        -2232.85421
     37       2.00000         -63.741728        -1734.50066
     38       2.00000         -63.741728        -1734.50066
     39       2.00000         -63.741728        -1734.50066
     40       2.00000         -63.741728        -1734.50066
     41       2.00000         -63.741728        -1734.50066
     42       2.00000         -63.741728        -1734.50066
     43       2.00000         -63.741728        -1734.50066
     44       2.00000         -63.741728        -1734.50066
     45       2.00000         -63.741726        -1734.50061
     46       2.00000         -63.741726        -1734.50061
     47       2.00000         -63.741726        -1734.50061
     48       2.00000         -63.741726        -1734.50061
     49       2.00000         -63.741726        -1734.50061
     50       2.00000         -63.741726        -1734.50061
     51       2.00000         -63.741726        -1734.50061
     52       2.00000         -63.741726        -1734.50061
     53       2.00000         -63.741726        -1734.50061
     54       2.00000         -63.741726        -1734.50061
     55       2.00000         -63.741726        -1734.50061
     56       2.00000         -63.741726        -1734.50061
     57       2.00000         -19.873580         -540.78762
     58       2.00000         -19.873580         -540.78762
     59       2.00000         -19.873580         -540.78762
     60       2.00000         -19.873580         -540.78762
     61       2.00000         -14.732279         -400.88572
     62       2.00000         -14.732279         -400.88572
     63       2.00000         -14.732279         -400.88572
     64       2.00000         -14.732279         -400.88572
     65       2.00000         -14.732279         -400.88572
     66       2.00000         -14.732279         -400.88572
     67       2.00000         -14.732279         -400.88572
     68       2.00000         -14.732279         -400.88572
     69       2.00000         -14.732279         -400.88572
     70       2.00000         -14.732279         -400.88572
     71       2.00000         -14.732279         -400.88572
     72       2.00000         -14.732279         -400.88572
     73       2.00000         -10.152178         -276.25483
     74       2.00000         -10.152178         -276.25482
     75       2.00000         -10.152178         -276.25482
     76       2.00000         -10.152178         -276.25482
     77       2.00000          -8.167981         -222.26208
     78       2.00000          -8.167981         -222.26208
     79       2.00000          -8.167981         -222.26208
     80       2.00000          -8.167981         -222.26208
     81       2.00000          -8.167981         -222.26208
     82       2.00000          -8.167981         -222.26208
     83       2.00000          -8.167981         -222.26208
     84       2.00000          -8.167981         -222.26208
     85       2.00000          -8.167866         -222.25894
     86       2.00000          -8.167866         -222.25894
     87       2.00000          -8.167866         -222.25894
     88       2.00000          -8.167866         -222.25894
     89       2.00000          -8.167866         -222.25894
     90       2.00000          -8.167866         -222.25894
     91       2.00000          -8.167866         -222.25894
     92       2.00000          -8.167866         -222.25894
     93       2.00000          -8.167866         -222.25894
     94       2.00000          -8.167866         -222.25893
     95       2.00000          -8.167866         -222.25893
     96       2.00000          -8.167866         -222.25893
     97       2.00000          -2.701601          -73.51430
     98       2.00000          -2.699041          -73.44465
     99       2.00000          -2.699041          -73.44465
    100       2.00000          -2.699041          -73.44465
    101       2.00000          -1.496106          -40.71112
    102       2.00000          -1.496106          -40.71112
    103       2.00000          -1.496106          -40.71112
    104       2.00000          -1.479698          -40.26462
    105       2.00000          -1.479698          -40.26462
    106       2.00000          -1.479698          -40.26462
    107       2.00000          -1.479698          -40.26462
    108       2.00000          -1.479698          -40.26462
    109       2.00000          -1.479698          -40.26462
    110       2.00000          -1.469154          -39.97772
    111       2.00000          -1.469154          -39.97772
    112       2.00000          -1.469154          -39.97772
    113       2.00000          -0.920423          -25.04598
    114       2.00000          -0.920423          -25.04598
    115       2.00000          -0.920423          -25.04598
    116       2.00000          -0.919392          -25.01793
    117       2.00000          -0.919392          -25.01793
    118       2.00000          -0.919392          -25.01793
    119       2.00000          -0.919392          -25.01793
    120       2.00000          -0.919392          -25.01793
    121       2.00000          -0.919392          -25.01793
    122       2.00000          -0.919248          -25.01401
    123       2.00000          -0.919235          -25.01365
    124       2.00000          -0.919235          -25.01365
    125       2.00000          -0.919235          -25.01365
    126       2.00000          -0.918968          -25.00640
    127       2.00000          -0.918968          -25.00640
    128       2.00000          -0.918968          -25.00640
    129       2.00000          -0.918764          -25.00083
    130       2.00000          -0.918764          -25.00083
    131       2.00000          -0.918764          -25.00083
    132       2.00000          -0.918764          -25.00083
    133       2.00000          -0.918764          -25.00083
    134       2.00000          -0.918764          -25.00083
    135       2.00000          -0.917930          -24.97814
    136       2.00000          -0.917930          -24.97814
    137       2.00000          -0.917930          -24.97814
    138       2.00000          -0.917793          -24.97441
    139       2.00000          -0.917793          -24.97441
    140       2.00000          -0.917793          -24.97441
    141       2.00000          -0.825806          -22.47131
    142       2.00000          -0.759243          -20.66006
    143       2.00000          -0.759243          -20.66006
    144       2.00000          -0.759243          -20.66006
    145       2.00000          -0.441514          -12.01421
    146       2.00000          -0.441514          -12.01421
    147       2.00000          -0.441514          -12.01421
    148       2.00000          -0.386084          -10.50589
    149       2.00000          -0.386084          -10.50589
    150       2.00000          -0.386084          -10.50589
    151       2.00000          -0.354878           -9.65671
    152       2.00000          -0.354878           -9.65671
    153       2.00000          -0.354878           -9.65671
    154       2.00000          -0.354878           -9.65671
    155       2.00000          -0.354878           -9.65671
    156       2.00000          -0.354878           -9.65671
    157       2.00000          -0.317752           -8.64647
    158       2.00000          -0.317752           -8.64647
    159       2.00000          -0.317752           -8.64647
    160       1.99979          -0.254004           -6.91180
    161       1.99979          -0.254004           -6.91180
    162       1.99979          -0.254004           -6.91180
    163       0.00003          -0.179086           -4.87319
    164       0.00003          -0.179086           -4.87319
    165       0.00000          -0.105120           -2.86045
    166       0.00000          -0.105120           -2.86045
    167       0.00000          -0.105120           -2.86045
    168       0.00000          -0.046916           -1.27664
    169       0.00000          -0.046916           -1.27664
    170       0.00000          -0.046916           -1.27664
    171       0.00000          -0.046916           -1.27664
    172       0.00000          -0.046916           -1.27664
    173       0.00000          -0.046916           -1.27664
    174       0.00000          -0.021736           -0.59146
    175       0.00000           0.043276            1.17759
    176       0.00000           0.043276            1.17759
    177       0.00000           0.043276            1.17759
    178       0.00000           0.069809            1.89959
    179       0.00000           0.069809            1.89959
    180       0.00000           0.069809            1.89959

  What follows are estimated values for band gap, HOMO, LUMO, etc.
  | They are estimated on a discrete k-point grid and not necessarily exact.
  | For converged numbers, create a DOS and/or band structure plot on a denser k-grid.

  Highest occupied state (VBM) at     -5.99882414 eV (relative to internal zero)
  | Occupation number:      1.00626802
  | K-point:     480 at    0.333333    0.750000    0.000000 (in units of recip. lattice)

  Lowest unoccupied state (CBM) at    -5.97847478 eV (relative to internal zero)
  | Occupation number:      0.90481038
  | K-point:     799 at    0.833333    0.000000    0.916667 (in units of recip. lattice)

  ESTIMATED overall HOMO-LUMO gap:      0.02034936 eV between HOMO at k-point 480 and LUMO at k-point 799
  | This appears to be an indirect band gap.
  | Smallest direct gap :      0.09773425 eV for k_point 69 at    0.833333    0.000000    0.916667 (in units of recip. lattice)
  However, this system has fractional occupation numbers. Since we use a finite k-point grid,
  this material is metallic within the approximate finite broadening function (occupation_type)
  applied to determine the occupation numbers.
  Calculating total energy contributions from superposition of free atom densities.

  Total energy components:
  | Sum of eigenvalues            :      -40264.25891075 Ha    -1095646.23082793 eV
  | XC energy correction          :       -1299.94736500 Ha      -35373.36757873 eV
  | XC potential correction       :        1699.48445370 Ha       46245.32492138 eV
  | Free-atom electrostatic energy:      -24559.09837487 Ha     -668287.06885190 eV
  | Hartree energy correction     :           0.00000000 Ha           0.00000000 eV
  | Entropy correction            :          -0.00121797 Ha          -0.03314267 eV
  | ---------------------------
  | Total energy                  :      -64423.82019692 Ha    -1753061.34233717 eV
  | Total energy, T -> 0          :      -64423.82141489 Ha    -1753061.37547984 eV  <-- do not rely on this value for anything but (periodic) metals
  | Electronic free energy        :      -64423.82263286 Ha    -1753061.40862252 eV

  Derived energy quantities:
  | Kinetic energy                :       70910.87219449 Ha     1929583.00851453 eV
  | Electrostatic energy          :     -134034.74502641 Ha    -3647270.98327298 eV
  | Energy correction for multipole
  | error in Hartree potential    :           0.00000000 Ha           0.00000000 eV
  | Sum of eigenvalues per atom                           :     -136955.77885349 eV
  | Total energy (T->0) per atom                          :     -219132.67193498 eV  <-- do not rely on this value for anything but (periodic) metals
  | Electronic free energy per atom                       :     -219132.67607781 eV
  Initialize hartree_potential_storage
  Max. number of atoms included in rho_multipole:            8

  End scf initialization - timings             :  max(cpu_time)    wall_clock(cpu1)
  | Time for scf. initialization               :        4.484 s           4.991 s
  | Boundary condition initialization          :        0.808 s           0.813 s
  | Integration                                :        0.968 s           0.994 s
  | Solution of K.-S. eqns.                    :        1.643 s           1.907 s
  | Grid partitioning                          :        0.232 s           0.293 s
  | Preloading free-atom quantities on grid    :        0.014 s           0.014 s
  | Free-atom superposition energy             :        0.088 s           0.094 s
  | Total energy evaluation                    :        0.006 s           0.008 s

  Partial memory accounting:
  | Current value for overall tracked memory usage:
  |   Minimum:       15.954 MB (on task  0)
  |   Maximum:       16.448 MB (on task  1)
  |   Average:       16.016 MB
  | Peak value for overall tracked memory usage:
  |   Minimum:       21.118 MB (on task 21 after allocating wave)
  |   Maximum:       21.892 MB (on task  3 after allocating wave)
  |   Average:       21.341 MB
  | Largest tracked array allocation so far:
  |   Minimum:       13.348 MB (KS_eigenvector_complex on task  0)
  |   Maximum:       13.843 MB (KS_eigenvector_complex on task  1)
  |   Average:       13.410 MB
  Note:  These values currently only include a subset of arrays which are explicitly tracked.
  The "true" memory usage will be greater.
------------------------------------------------------------

------------------------------------------------------------
          Begin self-consistency iteration #    1

  Date     :  20200506, Time     :  184444.092
------------------------------------------------------------
  Evaluating new KS density using the density matrix
  Evaluating density matrix
  Time summed over all CPUs for getting density from density matrix: real work       16.356 s, elapsed       22.072 s
  Integration grid: deviation in total charge (<rho> - N_e) =  -1.823537E-10
  Pulay mixing of updated and previous charge densities.
  Renormalizing the density to the exact electron count on the 3D integration grid.
  | Formal number of electrons (from input files) :     316.0000000000
  | Integrated number of electrons on 3D grid     :     315.9998564899
  | Charge integration error                      :      -0.0001435101
  | Normalization factor for density and gradient :       1.0000004541

  Evaluating partitioned Hartree potential by multipole expansion.
  | Original multipole sum: apparent total charge =   0.960073E-13
  | Sum of charges compensated after spline to logarithmic grids =   0.112957E-06
  | Analytical far-field extrapolation by fixed multipoles:
  | Hartree multipole sum: apparent total charge =   0.959765E-13
  Summing up the Hartree potential.
  Time summed over all CPUs for potential: real work       19.628 s, elapsed       33.207 s
  | RMS charge density error from multipole expansion :   0.213861E-03
  | Average real-space part of the electrostatic potential :      0.00974935 eV

  Integrating Hamiltonian matrix: batch-based integration.
  Time summed over all CPUs for integration: real work       11.802 s, elapsed       17.501 s => Consider using load balancing!

  Updating Kohn-Sham eigenvalues and eigenvectors using ELSI and the (modified) LAPACK eigensolver.
  Starting LAPACK eigensolver
  Finished Cholesky decomposition
  | Time :     0.001 s
  Finished transformation to standard eigenproblem
  | Time :     0.002 s
  Finished solving standard eigenproblem
  | Time :     0.009 s
  Finished back-transformation of eigenvectors
  | Time :     0.001 s

  Obtaining occupation numbers and chemical potential using ELSI.
  | Chemical potential (Fermi level):    -6.00045726 eV
  Writing Kohn-Sham eigenvalues.
  K-point:       1 at    0.000000    0.000000    0.000000 (in units of recip. lattice)

  State    Occupation    Eigenvalue [Ha]    Eigenvalue [eV]
      1       2.00000       -2673.737534       -72756.10010
      2       2.00000       -2673.737534       -72756.10010
      3       2.00000       -2673.737534       -72756.10010
      4       2.00000       -2673.737534       -72756.10010
      5       2.00000        -431.917195       -11753.06487
      6       2.00000        -431.917195       -11753.06487
      7       2.00000        -431.917195       -11753.06487
      8       2.00000        -431.917195       -11753.06487
      9       2.00000        -377.940695       -10284.28957
     10       2.00000        -377.940695       -10284.28957
     11       2.00000        -377.940695       -10284.28957
     12       2.00000        -377.940695       -10284.28957
     13       2.00000        -377.940695       -10284.28957
     14       2.00000        -377.940695       -10284.28957
     15       2.00000        -377.940695       -10284.28957
     16       2.00000        -377.940695       -10284.28957
     17       2.00000        -377.940695       -10284.28957
     18       2.00000        -377.940695       -10284.28957
     19       2.00000        -377.940695       -10284.28957
     20       2.00000        -377.940695       -10284.28957
     21       2.00000         -97.820659        -2661.83556
     22       2.00000         -97.820659        -2661.83556
     23       2.00000         -97.820659        -2661.83556
     24       2.00000         -97.820659        -2661.83556
     25       2.00000         -82.057116        -2232.88774
     26       2.00000         -82.057116        -2232.88774
     27       2.00000         -82.057116        -2232.88774
     28       2.00000         -82.057116        -2232.88774
     29       2.00000         -82.057116        -2232.88774
     30       2.00000         -82.057116        -2232.88774
     31       2.00000         -82.057116        -2232.88774
     32       2.00000         -82.057116        -2232.88774
     33       2.00000         -82.057116        -2232.88774
     34       2.00000         -82.057116        -2232.88774
     35       2.00000         -82.057116        -2232.88774
     36       2.00000         -82.057116        -2232.88774
     37       2.00000         -63.742965        -1734.53434
     38       2.00000         -63.742965        -1734.53434
     39       2.00000         -63.742965        -1734.53434
     40       2.00000         -63.742965        -1734.53434
     41       2.00000         -63.742965        -1734.53434
     42       2.00000         -63.742965        -1734.53434
     43       2.00000         -63.742965        -1734.53434
     44       2.00000         -63.742965        -1734.53434
     45       2.00000         -63.742962        -1734.53426
     46       2.00000         -63.742962        -1734.53426
     47       2.00000         -63.742962        -1734.53426
     48       2.00000         -63.742962        -1734.53426
     49       2.00000         -63.742962        -1734.53426
     50       2.00000         -63.742962        -1734.53426
     51       2.00000         -63.742962        -1734.53426
     52       2.00000         -63.742962        -1734.53426
     53       2.00000         -63.742962        -1734.53426
     54       2.00000         -63.742962        -1734.53426
     55       2.00000         -63.742962        -1734.53426
     56       2.00000         -63.742962        -1734.53426
     57       2.00000         -19.874789         -540.82054
     58       2.00000         -19.874789         -540.82054
     59       2.00000         -19.874789         -540.82054
     60       2.00000         -19.874789         -540.82054
     61       2.00000         -14.733484         -400.91850
     62       2.00000         -14.733484         -400.91850
     63       2.00000         -14.733484         -400.91850
     64       2.00000         -14.733484         -400.91850
     65       2.00000         -14.733484         -400.91850
     66       2.00000         -14.733484         -400.91850
     67       2.00000         -14.733484         -400.91850
     68       2.00000         -14.733484         -400.91850
     69       2.00000         -14.733484         -400.91850
     70       2.00000         -14.733484         -400.91850
     71       2.00000         -14.733484         -400.91850
     72       2.00000         -14.733484         -400.91850
     73       2.00000         -10.147917         -276.13886
     74       2.00000         -10.147917         -276.13886
     75       2.00000         -10.147917         -276.13886
     76       2.00000         -10.147917         -276.13886
     77       2.00000          -8.169182         -222.29476
     78       2.00000          -8.169182         -222.29476
     79       2.00000          -8.169182         -222.29476
     80       2.00000          -8.169182         -222.29475
     81       2.00000          -8.169182         -222.29475
     82       2.00000          -8.169182         -222.29475
     83       2.00000          -8.169182         -222.29475
     84       2.00000          -8.169182         -222.29475
     85       2.00000          -8.169066         -222.29160
     86       2.00000          -8.169066         -222.29160
     87       2.00000          -8.169066         -222.29160
     88       2.00000          -8.169066         -222.29160
     89       2.00000          -8.169066         -222.29160
     90       2.00000          -8.169066         -222.29160
     91       2.00000          -8.169066         -222.29160
     92       2.00000          -8.169066         -222.29160
     93       2.00000          -8.169066         -222.29160
     94       2.00000          -8.169066         -222.29159
     95       2.00000          -8.169066         -222.29159
     96       2.00000          -8.169066         -222.29159
     97       2.00000          -2.702638          -73.54253
     98       2.00000          -2.700083          -73.47299
     99       2.00000          -2.700083          -73.47299
    100       2.00000          -2.700083          -73.47299
    101       2.00000          -1.496984          -40.73500
    102       2.00000          -1.496984          -40.73500
    103       2.00000          -1.496984          -40.73500
    104       2.00000          -1.480609          -40.28941
    105       2.00000          -1.480609          -40.28941
    106       2.00000          -1.480609          -40.28941
    107       2.00000          -1.480609          -40.28941
    108       2.00000          -1.480609          -40.28941
    109       2.00000          -1.480609          -40.28941
    110       2.00000          -1.470086          -40.00309
    111       2.00000          -1.470086          -40.00309
    112       2.00000          -1.470086          -40.00309
    113       2.00000          -0.921583          -25.07754
    114       2.00000          -0.921583          -25.07754
    115       2.00000          -0.921583          -25.07754
    116       2.00000          -0.920557          -25.04963
    117       2.00000          -0.920557          -25.04963
    118       2.00000          -0.920557          -25.04963
    119       2.00000          -0.920557          -25.04963
    120       2.00000          -0.920557          -25.04963
    121       2.00000          -0.920557          -25.04963
    122       2.00000          -0.920423          -25.04598
    123       2.00000          -0.920407          -25.04555
    124       2.00000          -0.920407          -25.04555
    125       2.00000          -0.920407          -25.04555
    126       2.00000          -0.920138          -25.03822
    127       2.00000          -0.920138          -25.03822
    128       2.00000          -0.920138          -25.03822
    129       2.00000          -0.919935          -25.03272
    130       2.00000          -0.919935          -25.03272
    131       2.00000          -0.919935          -25.03272
    132       2.00000          -0.919935          -25.03272
    133       2.00000          -0.919935          -25.03272
    134       2.00000          -0.919935          -25.03272
    135       2.00000          -0.919106          -25.01016
    136       2.00000          -0.919106          -25.01016
    137       2.00000          -0.919106          -25.01016
    138       2.00000          -0.918966          -25.00635
    139       2.00000          -0.918966          -25.00635
    140       2.00000          -0.918966          -25.00635
    141       2.00000          -0.824883          -22.44621
    142       2.00000          -0.758078          -20.62835
    143       2.00000          -0.758078          -20.62835
    144       2.00000          -0.758078          -20.62835
    145       2.00000          -0.440482          -11.98612
    146       2.00000          -0.440482          -11.98612
    147       2.00000          -0.440482          -11.98612
    148       2.00000          -0.386489          -10.51690
    149       2.00000          -0.386489          -10.51690
    150       2.00000          -0.386489          -10.51690
    151       2.00000          -0.353325           -9.61446
    152       2.00000          -0.353325           -9.61446
    153       2.00000          -0.353325           -9.61446
    154       2.00000          -0.353325           -9.61446
    155       2.00000          -0.353325           -9.61446
    156       2.00000          -0.353325           -9.61446
    157       2.00000          -0.315989           -8.59849
    158       2.00000          -0.315989           -8.59849
    159       2.00000          -0.315989           -8.59849
    160       1.99981          -0.254543           -6.92646
    161       1.99981          -0.254543           -6.92646
    162       1.99981          -0.254543           -6.92646
    163       0.00003          -0.179587           -4.88680
    164       0.00003          -0.179587           -4.88680
    165       0.00000          -0.105670           -2.87544
    166       0.00000          -0.105670           -2.87544
    167       0.00000          -0.105670           -2.87544
    168       0.00000          -0.047652           -1.29669
    169       0.00000          -0.047652           -1.29669
    170       0.00000          -0.047652           -1.29669
    171       0.00000          -0.047652           -1.29669
    172       0.00000          -0.047652           -1.29669
    173       0.00000          -0.047652           -1.29669
    174       0.00000          -0.020827           -0.56672
    175       0.00000           0.042905            1.16750
    176       0.00000           0.042905            1.16750
    177       0.00000           0.042905            1.16750
    178       0.00000           0.070224            1.91088
    179       0.00000           0.070224            1.91088
    180       0.00000           0.070224            1.91088

  What follows are estimated values for band gap, HOMO, LUMO, etc.
  | They are estimated on a discrete k-point grid and not necessarily exact.
  | For converged numbers, create a DOS and/or band structure plot on a denser k-grid.

  Highest occupied state (VBM) at     -6.01803831 eV (relative to internal zero)
  | Occupation number:      1.08767952
  | K-point:     104 at    0.083333    0.250000    0.250000 (in units of recip. lattice)

  Lowest unoccupied state (CBM) at    -5.99863490 eV (relative to internal zero)
  | Occupation number:      0.99088847
  | K-point:      32 at    0.000000    0.250000    0.666667 (in units of recip. lattice)

  ESTIMATED overall HOMO-LUMO gap:      0.01940341 eV between HOMO at k-point 104 and LUMO at k-point 32
  | This appears to be an indirect band gap.
  | Smallest direct gap :      0.09154060 eV for k_point 18 at    0.000000    0.250000    0.666667 (in units of recip. lattice)
  However, this system has fractional occupation numbers. Since we use a finite k-point grid,
  this material is metallic within the approximate finite broadening function (occupation_type)
  applied to determine the occupation numbers.

  Total energy components:
  | Sum of eigenvalues            :      -40264.51321224 Ha    -1095653.15072361 eV
  | XC energy correction          :       -1299.94987077 Ha      -35373.43576415 eV
  | XC potential correction       :        1699.48736671 Ha       46245.40418849 eV
  | Free-atom electrostatic energy:      -24559.09837487 Ha     -668287.06885190 eV
  | Hartree energy correction     :           0.26635965 Ha           7.24801490 eV
  | Entropy correction            :          -0.00121945 Ha          -0.03318289 eV
  | ---------------------------
  | Total energy                  :      -64423.80773151 Ha    -1753061.00313626 eV
  | Total energy, T -> 0          :      -64423.80895096 Ha    -1753061.03631915 eV  <-- do not rely on this value for anything but (periodic) metals
  | Electronic free energy        :      -64423.81017041 Ha    -1753061.06950204 eV

  Derived energy quantities:
  | Kinetic energy                :       70910.97092098 Ha     1929585.69499903 eV
  | Electrostatic energy          :     -134034.82878172 Ha    -3647273.26237115 eV
  | Energy correction for multipole
  | error in Hartree potential    :           0.00026298 Ha           0.00715593 eV
  | Sum of eigenvalues per atom                           :     -136956.64384045 eV
  | Total energy (T->0) per atom                          :     -219132.62953989 eV  <-- do not rely on this value for anything but (periodic) metals
  | Electronic free energy per atom                       :     -219132.63368775 eV

  Self-consistency convergence accuracy:
  | Change of charge density      :  0.6121E+00
  | Change of sum of eigenvalues  : -0.6920E+01 eV
  | Change of total energy        :  0.3392E+00 eV

  End self-consistency iteration #     1       :  max(cpu_time)    wall_clock(cpu1)
  | Time for this iteration                    :        4.868 s           4.881 s
  | Charge density update                      :        0.894 s           0.902 s
  | Density mixing & preconditioning           :        0.956 s           0.959 s
  | Hartree multipole update                   :        0.007 s           0.007 s
  | Hartree multipole summation                :        1.053 s           1.053 s
  | Integration                                :        0.553 s           0.553 s
  | Solution of K.-S. eqns.                    :        1.365 s           1.386 s
  | Total energy evaluation                    :        0.005 s           0.011 s

  Partial memory accounting:
  | Current value for overall tracked memory usage:
  |   Minimum:       15.954 MB (on task  0)
  |   Maximum:       16.448 MB (on task  1)
  |   Average:       16.016 MB
  | Peak value for overall tracked memory usage:
  |   Minimum:       21.118 MB (on task 21 after allocating wave)
  |   Maximum:       21.892 MB (on task  3 after allocating wave)
  |   Average:       21.341 MB
[...]
  | Electronic free energy        :         -0.175305242713990E+07 eV
  Total atomic forces (unitary forces cleaned) [eV/Ang]:
  |    1         -0.218354851711609E-05         -0.100198046834588E-04         -0.281561331762177E-06
  |    2         -0.218409957251473E-05         -0.100214584339960E-04         -0.283729064656163E-06
  |    3         -0.218528092028020E-05         -0.100195259993545E-04         -0.284277893493407E-06
  |    4         -0.218516756543632E-05         -0.100221632062568E-04         -0.281168006110445E-06
  |    5         -0.164654363894540E-05         -0.104078077964988E-04         -0.166582147442801E-05
  |    6          0.427667026941697E-05          0.284225062123513E-04          0.442411030289878E-05
  |    7          0.284820991485504E-05         -0.294517422798431E-05          0.454583286649993E-05
  |    8          0.325976003002073E-05          0.250134281351979E-04         -0.617338539894850E-05

  ------------------------------------ 
  Start decomposition of the XC Energy 
  ------------------------------------ 
  X and C from original XC functional choice 
  Hartree-Fock Energy :          0.000000000 Ha              0.000000000 eV
  X Energy            :      -1281.633627905 Ha         -34875.025437043 eV
  C Energy            :        -18.615917666 Ha           -506.564893437 eV
  Total XC Energy     :      -1300.249545571 Ha         -35381.590330480 eV
  ------------------------------------ 
  LDA X and C from self-consistent density 
  X Energy LDA        :      -1228.661388651 Ha         -33433.577466882 eV
  C Energy LDA        :        -31.805081778 Ha           -865.460309314 eV
  ------------------------------------ 
  End decomposition of the XC Energy 
  ------------------------------------ 

------------------------------------------------------------

  ------------------------------------------------------------
                   Starting Mulliken Analysis
  ------------------------------------------------------------

  Performing Mulliken charge analysis on all atoms.
  Full analysis (per state, per k-point, etc.) will NOT be written to separate file 'Mulliken.out'.
  This file can be requested by stating 'output mulliken' explicitly.
  Summary of the per-atom charge analysis:
  |
  |  atom       electrons          charge             l=0             l=1             l=2             l=3
  |     1        6.871623       -0.871623        3.450754        3.420869
  |     2        6.871623       -0.871623        3.450754        3.420869
  |     3        6.871623       -0.871623        3.450754        3.420869
  |     4        6.871623       -0.871623        3.450754        3.420869
  |     5       72.128377        0.871623       10.395521       23.995747       23.738909       13.998200
  |     6       72.128377        0.871623       10.395521       23.995747       23.738909       13.998200
  |     7       72.128377        0.871623       10.395521       23.995747       23.738909       13.998200
  |     8       72.128377        0.871623       10.395521       23.995747       23.738909       13.998200
  |
  | Total      316.000000        0.000000
 

  Calculating atom-projected density of states ...
  | Chemical potential is  -5.875005 eV.
  | writing projected DOS (shifted by the chemical potential) for species C to file atom_projected_dos_C0001.dat.
  | writing projected DOS (raw data) for species C to file atom_proj_dos_C0001_raw.dat.
  | writing projected DOS (shifted by the chemical potential) for species C to file atom_projected_dos_C0002.dat.
  | writing projected DOS (raw data) for species C to file atom_proj_dos_C0002_raw.dat.
  | writing projected DOS (shifted by the chemical potential) for species C to file atom_projected_dos_C0003.dat.
  | writing projected DOS (raw data) for species C to file atom_proj_dos_C0003_raw.dat.
  | writing projected DOS (shifted by the chemical potential) for species C to file atom_projected_dos_C0004.dat.
  | writing projected DOS (raw data) for species C to file atom_proj_dos_C0004_raw.dat.
  | writing projected DOS (shifted by the chemical potential) for species Ta to file atom_projected_dos_Ta0005.dat.
  | writing projected DOS (raw data) for species Ta to file atom_proj_dos_Ta0005_raw.dat.
  | writing projected DOS (shifted by the chemical potential) for species Ta to file atom_projected_dos_Ta0006.dat.
  | writing projected DOS (raw data) for species Ta to file atom_proj_dos_Ta0006_raw.dat.
  | writing projected DOS (shifted by the chemical potential) for species Ta to file atom_projected_dos_Ta0007.dat.
  | writing projected DOS (raw data) for species Ta to file atom_proj_dos_Ta0007_raw.dat.
  | writing projected DOS (shifted by the chemical potential) for species Ta to file atom_projected_dos_Ta0008.dat.
  | writing projected DOS (raw data) for species Ta to file atom_proj_dos_Ta0008_raw.dat.
  Mulliken analysis                                       :  max(cpu_time)    wall_clock(cpu1)
  | Time for Mulliken analysis                            :         77.468              77.572
  | Total time for Mulliken analysis                      :         77.468              77.572
------------------------------------------------------------
  Performing Hirshfeld analysis of fragment charges and moments.
  ----------------------------------------------------------------------
  | Atom     1: C
  |   Hirshfeld charge        :     -0.30898430
  |   Free atom volume        :     37.22336203
  |   Hirshfeld volume        :     36.50366930
  |   Hirshfeld dipole vector :     -0.00000000      -0.00000000      -0.00000000
  |   Hirshfeld dipole moment :      0.00000000
  |   Hirshfeld second moments:     -0.00902390      -0.00000000       0.00000000
  |                                 -0.00000000      -0.00902390      -0.00000000
  |                                  0.00000000      -0.00000000      -0.00902390
  ----------------------------------------------------------------------
  | Atom     2: C
  |   Hirshfeld charge        :     -0.30898430
  |   Free atom volume        :     37.22336203
  |   Hirshfeld volume        :     36.50366930
  |   Hirshfeld dipole vector :     -0.00000000       0.00000000       0.00000000
  |   Hirshfeld dipole moment :      0.00000000
  |   Hirshfeld second moments:     -0.00902390       0.00000000      -0.00000000
  |                                  0.00000000      -0.00902390      -0.00000000
  |                                 -0.00000000      -0.00000000      -0.00902390
  ----------------------------------------------------------------------
  | Atom     3: C
  |   Hirshfeld charge        :     -0.30898430
  |   Free atom volume        :     37.22336203
  |   Hirshfeld volume        :     36.50366930
  |   Hirshfeld dipole vector :      0.00000000      -0.00000000       0.00000000
  |   Hirshfeld dipole moment :      0.00000000
  |   Hirshfeld second moments:     -0.00902390       0.00000000       0.00000000
  |                                  0.00000000      -0.00902390       0.00000000
  |                                  0.00000000       0.00000000      -0.00902390
  ----------------------------------------------------------------------
  | Atom     4: C
  |   Hirshfeld charge        :     -0.30898430
  |   Free atom volume        :     37.22336203
  |   Hirshfeld volume        :     36.50366930
  |   Hirshfeld dipole vector :      0.00000000       0.00000000      -0.00000000
  |   Hirshfeld dipole moment :      0.00000000
  |   Hirshfeld second moments:     -0.00902390      -0.00000000      -0.00000000
  |                                 -0.00000000      -0.00902390       0.00000000
  |                                 -0.00000000       0.00000000      -0.00902390
  ----------------------------------------------------------------------
  | Atom     5: Ta
  |   Hirshfeld charge        :      0.31303420
  |   Free atom volume        :    181.97835930
  |   Hirshfeld volume        :    177.28084067
  |   Hirshfeld dipole vector :      0.00000000       0.00000000       0.00000000
  |   Hirshfeld dipole moment :      0.00000000
  |   Hirshfeld second moments:      0.15437390      -0.00000000       0.00000000
  |                                 -0.00000000       0.15437390      -0.00000000
  |                                  0.00000000      -0.00000000       0.15437390
  ----------------------------------------------------------------------
  | Atom     6: Ta
  |   Hirshfeld charge        :      0.31303420
  |   Free atom volume        :    181.97835930
  |   Hirshfeld volume        :    177.28084067
  |   Hirshfeld dipole vector :      0.00000000      -0.00000000      -0.00000000
  |   Hirshfeld dipole moment :      0.00000000
  |   Hirshfeld second moments:      0.15437390       0.00000000      -0.00000000
  |                                  0.00000000       0.15437390      -0.00000000
  |                                 -0.00000000      -0.00000000       0.15437390
  ----------------------------------------------------------------------
  | Atom     7: Ta
  |   Hirshfeld charge        :      0.31303420
  |   Free atom volume        :    181.97835930
  |   Hirshfeld volume        :    177.28084067
  |   Hirshfeld dipole vector :     -0.00000000       0.00000000      -0.00000000
  |   Hirshfeld dipole moment :      0.00000000
  |   Hirshfeld second moments:      0.15437390       0.00000000       0.00000000
  |                                  0.00000000       0.15437390       0.00000000
  |                                  0.00000000       0.00000000       0.15437390
  ----------------------------------------------------------------------
  | Atom     8: Ta
  |   Hirshfeld charge        :      0.31303420
  |   Free atom volume        :    181.97835930
  |   Hirshfeld volume        :    177.28084067
  |   Hirshfeld dipole vector :     -0.00000000      -0.00000000       0.00000000
  |   Hirshfeld dipole moment :      0.00000000
  |   Hirshfeld second moments:      0.15437390      -0.00000000      -0.00000000
  |                                 -0.00000000       0.15437390       0.00000000
  |                                 -0.00000000       0.00000000       0.15437390
  ----------------------------------------------------------------------

  Post-scf processing of Kohn-Sham eigenvalues on a denser k-point grid.
  | Using dos_kgrid_factors to calculate post-scf total density of states.
  | Electron chemical potential:    -5.875004636777 eV.
  Integrating Hamiltonian matrix: batch-based integration.
  Time summed over all CPUs for integration: real work       12.224 s, elapsed       17.862 s => Consider using load balancing!
  Processing batch of k-points:     1     1     1
  Starting LAPACK eigensolver
  Finished Cholesky decomposition
  | Time :     0.001 s
  Finished transformation to standard eigenproblem
  | Time :     0.002 s
  Finished solving standard eigenproblem
  | Time :     0.008 s
  Finished back-transformation of eigenvectors
  | Time :     0.001 s
  Processing batch of k-points:     1     1     2
  Processing batch of k-points:     1     1     3
  Processing batch of k-points:     1     2     1
  Processing batch of k-points:     1     2     2
  Processing batch of k-points:     1     2     3
  Processing batch of k-points:     1     3     1
  Processing batch of k-points:     1     3     2
  Processing batch of k-points:     1     3     3
  Processing batch of k-points:     2     1     1
  Processing batch of k-points:     2     1     2
  Processing batch of k-points:     2     1     3
  Processing batch of k-points:     2     2     1
  Processing batch of k-points:     2     2     2
  Processing batch of k-points:     2     2     3
  Processing batch of k-points:     2     3     1
  Processing batch of k-points:     2     3     2
  Processing batch of k-points:     2     3     3
  Processing batch of k-points:     3     1     1
  Processing batch of k-points:     3     1     2
  Processing batch of k-points:     3     1     3
  Processing batch of k-points:     3     2     1
  Processing batch of k-points:     3     2     2
  Processing batch of k-points:     3     2     3
  Processing batch of k-points:     3     3     1
  Processing batch of k-points:     3     3     2
  Processing batch of k-points:     3     3     3
  | writing perturbative DOS (shifted by electron chemical potential) to file KS_dos_total.dat
  | writing perturbative DOS (raw data) to file KS_dos_total_raw.dat

  Perturbative DOS                                        :  max(cpu_time) wall_clock(cpu1)
  | Total Time                                            :         60.921           61.076
  ------------------------------------------------------------

------------------------------------------------------------------------------
  Final output of selected total energy values:

  The following output summarizes some interesting total energy values
  at the end of a run (AFTER all relaxation, molecular dynamics, etc.).

  | Total energy of the DFT / Hartree-Fock s.c.f. calculation      :       -1753052.331453659 eV
  | Final zero-broadening corrected energy (caution - metals only) :       -1753052.379296780 eV
  | For reference only, the value of 1 Hartree used in FHI-aims is :             27.211384500 eV
  | For reference only, the overall average (free atom contribution
  | + realspace contribution) of the electrostatic potential after
  | s.c.f. convergence is                                          :            -31.160871970 eV

  Before relying on these values, please be sure to understand exactly which
  total energy value is referred to by a given number. Different objects may
  all carry the same name 'total energy'. Definitions:

  Total energy of the DFT / Hartree-Fock s.c.f. calculation:
  | Note that this energy does not include ANY quantities calculated after the
  | s.c.f. cycle, in particular not ANY RPA, MP2, etc. many-body perturbation terms.

  Final zero-broadening corrected energy:
  | For metallic systems only, a broadening of the occupation numbers at the Fermi
  | level can be extrapolated back to zero broadening by an electron-gas inspired
  | formula. For all systems that are not real metals, this value can be
  | meaningless and should be avoided.

------------------------------------------------------------------------------
  Methods described in the following list of references were used in this FHI-aims run.
  If you publish the results, please make sure to cite these reference if they apply.
  FHI-aims is an academic code, and for our developers (often, Ph.D. students
  and postdocs), scientific credit in the community is essential.
  Thank you for helping us!

  For any use of FHI-aims, please cite:

    Volker Blum, Ralf Gehrke, Felix Hanke, Paula Havu, Ville Havu,
    Xinguo Ren, Karsten Reuter, and Matthias Scheffler
    'Ab initio molecular simulations with numeric atom-centered orbitals'
    Computer Physics Communications 180, 2175-2196 (2009)
    http://dx.doi.org/10.1016/j.cpc.2009.06.022


  For the analytical stress tensor used in your run, please cite:

    Franz Knuth, Christian Carbogno, Viktor Atalla, Volker Blum, Matthias Scheffler
    'All-electron formalism for total energy strain derivatives and
    stress tensor components for numeric atom-centered orbitals'
    Computer Physics Communications 190, 33-50 (2015).
    http://dx.doi.org/10.1016/j.cpc.2015.01.003


  The provided symmetry information was generated with SPGlib:

    Atsushi Togo, Yusuke Seto, Dimitar Pashov
    SPGlib 1.7.3 obtained from http://spglib.sourceforge.net
    Copyright (C) 2008 Atsushi Togo


  The ELSI infrastructure was used in your run to solve the Kohn-Sham electronic structure.
  Please check out http://elsi-interchange.org to learn more.
  If scalability is important for your project, please acknowledge ELSI by citing:

    V. W-z. Yu, F. Corsetti, A. Garcia, W. P. Huhn, M. Jacquelin, W. Jia,
    B. Lange, L. Lin, J. Lu, W. Mi, A. Seifitokaldani, A. Vazquez-Mayagoitia,
    C. Yang, H. Yang, and V. Blum
    'ELSI: A unified software interface for Kohn-Sham electronic structure solvers'
    Computer Physics Communications 222, 267-285 (2018).
    http://dx.doi.org/10.1016/j.cpc.2017.09.007


  For the real-space grid partitioning and parallelization used in this calculation, please cite:

    Ville Havu, Volker Blum, Paula Havu, and Matthias Scheffler,
    'Efficient O(N) integration for all-electron electronic structure calculation'
    'using numerically tabulated basis functions'
    Journal of Computational Physics 228, 8367-8379 (2009).
    http://dx.doi.org/10.1016/j.jcp.2009.08.008

  Of course, there are many other important community references, e.g., those cited in the
  above references. Our list is limited to references that describe implementations in the
  FHI-aims code. The reason is purely practical (length of this list) - please credit others as well.

 * A warning was issued further up regarding the accuracy of onsite integrals.
   An integral with a negative eigenvalue was among the flagged integrals.
   In most standard situations, this warning is probably harmless.
   If needed, this can be verified by adjusting the radial_multiplier flag.

------------------------------------------------------------
          Leaving FHI-aims.
          Date     :  20200506, Time     :  184913.508

          Computational steps:
          | Number of self-consistency cycles          :           23
          | Number of SCF (re)initializations          :            1

          Detailed time accounting                     :  max(cpu_time)    wall_clock(cpu1)
          | Total time                                 :      274.795 s         276.918 s
          | Preparation time                           :        0.811 s           0.948 s
          | Boundary condition initalization           :        0.808 s           0.813 s
          | Grid partitioning                          :        0.232 s           0.293 s
          | Preloading free-atom quantities on grid    :        0.014 s           0.014 s
          | Free-atom superposition energy             :        0.088 s           0.094 s
          | Total time for integrations                :       13.454 s          13.479 s
          | Total time for solution of K.-S. equations :       34.085 s          34.908 s
          | Total time for density & force components  :       32.650 s          32.667 s
          | Total time for mixing & preconditioning    :       20.241 s          20.245 s
          | Total time for Hartree multipole update    :        0.169 s           0.172 s
          | Total time for Hartree multipole sum       :       30.886 s          30.890 s
          | Total time for total energy evaluation     :        0.149 s           0.281 s
          | Total time for scaled ZORA corrections     :        0.000 s           0.000 s
          | Total time for band structures, DOS        :       61.059 s          61.076 s
          | Total time for Mulliken analysis           :       77.468 s          77.572 s

          Partial memory accounting:
          | Residual value for overall tracked memory usage across tasks:     0.000000 MB (should be 0.000000 MB)
          | Peak values for overall tracked memory usage:
          |   Minimum:       27.034 MB (on task 21 after allocating d_wave)
          |   Maximum:       28.189 MB (on task  3 after allocating d_wave)
          |   Average:       27.477 MB
          | Largest tracked array allocation:
          |   Minimum:       13.348 MB (KS_eigenvector_complex on task  0)
          |   Maximum:       13.843 MB (KS_eigenvector_complex on task  1)
          |   Average:       13.410 MB
          Note:  These values currently only include a subset of arrays which are explicitly tracked.
          The "true" memory usage will be greater.

          Have a nice day.
------------------------------------------------------------
