    ------------------------------------------------------------
          Invoking FHI-aims ...

          When using FHI-aims, please cite the following reference:

            Volker Blum, Ralf Gehrke, Felix Hanke, Paula Havu,
            Ville Havu, Xinguo Ren, Karsten Reuter, and Matthias Scheffler,
            'Ab Initio Molecular Simulations with Numeric Atom-Centered Orbitals',
            Computer Physics Communications 180, 2175-2196 (2009)

          In addition, many other developments in FHI-aims are likely important for
          your particular application. A partial list of references is given at the end of
          this file. Thank you for giving credit to the authors of these developments.

          For any questions about FHI-aims, please visit our slack channel at

            https://fhi-aims.slack.com

          and our main development and support site at

            https://aims-git.rz-berlin.mpg.de .

          The latter site, in particular, has a wiki to collect information, as well
          as an issue tracker to log discussions, suggest improvements, and report issues
          or bugs. https://aims-git.rz-berlin.mpg.de is also the main development site
          of the project and all new and updated code versions can be obtained there.
          Please send an email to aims-coordinators@fhi-berlin.mpg.de and we will add
          you to these sites. They are for you and everyone is welcome there.

------------------------------------------------------------



  Date     :  20230624, Time     :  233828.395
  Time zero on CPU 1             :   0.128810800000000E+01  s.
  Internal wall clock time zero  :           456881908.395  s.

  FHI-aims created a unique identifier for this run for later identification
  aims_uuid : 27F4201F-EFED-4275-A199-AEFC0886C53F

  Build configuration of the current instance of FHI-aims
  -------------------------------------------------------
  FHI-aims version      : 221103
  Commit number         : fe4ac0929
  CMake host system     : Linux-3.10.0-1160.76.1.el7.x86_64
  CMake version         : 3.16.2
  Fortran compiler      : /sw/comm/impi/compilers_and_libraries_2019.5.281/linux/mpi/intel64/bin/mpiifort (Intel) version 19.0.5.20190815
  Fortran compiler flags: -O3 -ip -fp-model precise
  C compiler            : /sw/comm/impi/compilers_and_libraries_2019.5.281/linux/mpi/intel64/bin/mpiicc (Intel) version 19.0.5.20190815
  C compiler flags      : -O3 -ip -fp-model precise -std=gnu99
  C++ compiler          : /sw/comm/impi/compilers_and_libraries_2019.5.281/linux/mpi/intel64/bin/mpiicpc (Intel) version 19.0.5.20190815
  C++ compiler flags    : -O3 -ip -fp-model precise
  HIP compiler          :
  HIP compiler flags    :
  HIP GPU arch          :
  ELPA2 kernel          : AVX512
  Using MPI
  Using ScaLAPACK
  Using LibXC
  Using i-PI
  Using RLSY
  Linking against: /sw/compiler/intel/compilers_and_libraries_2019.5.281/linux/mkl/lib/intel64/libmkl_intel_lp64.so
                   /sw/compiler/intel/compilers_and_libraries_2019.5.281/linux/mkl/lib/intel64/libmkl_sequential.so
                   /sw/compiler/intel/compilers_and_libraries_2019.5.281/linux/mkl/lib/intel64/libmkl_core.so
                   /sw/compiler/intel/compilers_and_libraries_2019.5.281/linux/mkl/lib/intel64/libmkl_blacs_intelmpi_lp64.so
                   /sw/compiler/intel/compilers_and_libraries_2019.5.281/linux/mkl/lib/intel64/libmkl_scalapack_lp64.so

  Using       40 parallel tasks.
  Task        0 on host gcn1403 reporting.
  Task        1 on host gcn1403 reporting.
  Task        2 on host gcn1403 reporting.
  Task        3 on host gcn1403 reporting.
  Task        4 on host gcn1403 reporting.
  Task        5 on host gcn1403 reporting.
  Task        6 on host gcn1403 reporting.
  Task        7 on host gcn1403 reporting.
  Task        8 on host gcn1403 reporting.
  Task        9 on host gcn1403 reporting.
  Task       10 on host gcn1403 reporting.
  Task       11 on host gcn1403 reporting.
  Task       12 on host gcn1403 reporting.
  Task       13 on host gcn1403 reporting.
  Task       14 on host gcn1403 reporting.
  Task       15 on host gcn1403 reporting.
  Task       16 on host gcn1403 reporting.
  Task       17 on host gcn1403 reporting.
  Task       18 on host gcn1403 reporting.
  Task       19 on host gcn1403 reporting.
  Task       20 on host gcn1403 reporting.
  Task       21 on host gcn1403 reporting.
  Task       22 on host gcn1403 reporting.
  Task       23 on host gcn1403 reporting.
  Task       24 on host gcn1403 reporting.
  Task       25 on host gcn1403 reporting.
  Task       26 on host gcn1403 reporting.
  Task       27 on host gcn1403 reporting.
  Task       28 on host gcn1403 reporting.
  Task       29 on host gcn1403 reporting.
  Task       30 on host gcn1403 reporting.
  Task       31 on host gcn1403 reporting.
  Task       32 on host gcn1403 reporting.
  Task       33 on host gcn1403 reporting.
  Task       34 on host gcn1403 reporting.
  Task       35 on host gcn1403 reporting.
  Task       36 on host gcn1403 reporting.
  Task       37 on host gcn1403 reporting.
  Task       38 on host gcn1403 reporting.
  Task       39 on host gcn1403 reporting.

  Performing system and environment tests:
  | Environment variable OMP_NUM_THREADS correctly set to 1.
  | Checking for ScaLAPACK...
  | Testing pdtran()...
  | All pdtran() tests passed.

  Obtaining array dimensions for all initial allocations:
  
  -----------------------------------------------------------------------
  Parsing control.in (first pass over file, find array dimensions only).
  The contents of control.in will be repeated verbatim below
  unless switched off by setting 'verbatim_writeout .false.' .
  in the first line of control.in .
  -----------------------------------------------------------------------
  
  #===============================================================================
  # FHI-aims file: /scratch/usr/bepdansp/aflow_binaries_vibes_1000_1999/pbe/light/minimal/atomic_zora/8/Al16F48_ICSD_72174/bandstructure/control.in
  # Created using the Atomic Simulation Environment (ASE)
  # Sat Jun 24 23:13:13 2023
  #===============================================================================
  sc_accuracy_rho                    1e-05
  sc_accuracy_eev                    1e-05
  sc_accuracy_etot                   1e-05
  sc_iter_limit                      8000
  occupation_type                    fermi 0.1
  spin                               none
  charge                             0.0
  mixer                              pulay
  n_max_pulay                        10
  charge_mix_param                   0.01
  preconditioner                     kerker 1.5
  override_relativity                .true.
  override_illconditioning           .true.
  elsi_restart                       write 10
  k_grid                             5 5 7
  dos_kgrid_factors                  4 4 3
  output                             quadrupole
  output                             hirshfeld
  output                             dos -30.0 15.0 45000 0.001
  output                             atom_proj_dos -30.0 15.0 45000 0.001
  output                             dos -30.0 15.0 45000 0.001
  output                             atom_proj_dos -30.0 15.0 45000 0.001
  output                             dos -30.0 15.0 45000 0.001
  output                             atom_proj_dos -30.0 15.0 45000 0.001
  output                             band   0.00000  0.00000  0.00000   0.00000  0.50000  0.00000  100 G  X
  output                             band   0.00000  0.50000  0.00000   0.50000  0.50000  0.00000  100 X  M
  output                             band   0.50000  0.50000  0.00000   0.00000  0.00000  0.00000  100 M  G
  output                             band   0.00000  0.00000  0.00000   0.00000  0.00000  0.50000  100 G  Z
  output                             band   0.00000  0.00000  0.50000   0.00000  0.50000  0.50000  100 Z  R
  output                             band   0.00000  0.50000  0.50000   0.50000  0.50000  0.50000  100 R  A
  output                             band   0.50000  0.50000  0.50000   0.00000  0.00000  0.50000  100 A  Z
  output                             band   0.00000  0.50000  0.00000   0.00000  0.50000  0.50000  100 X  R
  output                             band   0.50000  0.50000  0.00000   0.50000  0.50000  0.50000  100 M  A
  output                             cube total_density
  occupation_acc                     1e-08
  compensate_multipole_errors        .false.
  xc                                 pbe
  relativistic                       atomic_zora scalar
  #===============================================================================
  
  ################################################################################
  #
  #  FHI-aims code project
  #  VB, Fritz-Haber Institut, 2009
  #
  #  Suggested "light" defaults for Al atom (to be pasted into control.in file)
  #  Be sure to double-check any results obtained with these settings for post-processing,
  #  e.g., with the "tight" defaults and larger basis sets.
  #
  #  2020/09/08 Added f function to "light" after reinspection of Delta test outcomes.
  #             This was done for all of Al-Cl and is a tricky decision since it makes
  #             "light" calculations measurably more expensive for these elements.
  #             Nevertheless, outcomes for P, S, Cl (and to some extent, Si) appear
  #             to justify this choice.
  #
  ################################################################################
    species        Al
  #     global species definitions
      nucleus             13
      mass                26.9815386
  #
      l_hartree           4
  #
      cut_pot             3.5          1.5  1.0
      basis_dep_cutoff    1e-4
  #
      radial_base         41 5.0
      radial_multiplier   1
      angular_grids       specified
        division   0.6594  110
        division   0.8170  194
        division   0.9059  302
  #      division   1.0363  434
  #      division   1.1443  590
  #      division   1.2621  770
  #      division   2.8177  974
  #      outer_grid   974
        outer_grid   302
  ################################################################################
  #
  #  Definition of "minimal" basis
  #
  ################################################################################
  #     valence basis states
      valence      3  s   2.
      valence      3  p   1.
  #     ion occupancy
      ion_occ      3  s   1.
      ion_occ      2  p   6.
  ################################################################################
  #
  #  Suggested additional basis functions. For production calculations,
  #  uncomment them one after another (the most important basis functions are
  #  listed first).
  #
  #  Constructed for dimers: 2.0 A, 2.5 A, 3.0 A, 3.75 A, 4.5 A
  #
  ################################################################################
  #  "First tier" - improvements: -199.47 meV to -10.63 meV
  #     ionic 3 d auto
  #     ionic 3 p auto
  #     hydro 4 f 4.7
  #     ionic 3 s auto
  #  "Second tier" - improvements: -5.35 meV to -1.57 meV
  #     hydro 5 g 7
  #     hydro 3 d 6
  #     hydro 2 s 11.6
  #     hydro 2 p 0.9
  #  "Third tier" - improvements: -0.63 meV to -0.20 meV
  #     hydro 5 f 7.6
  #     hydro 4 p 7.2
  #     hydro 4 s 3.7
  #     hydro 4 d 7.6
  #  "Fourth tier" - improvements: -0.17 meV to -0.08 meV
  #     hydro 4 d 13.6
  #     hydro 5 g 11.2
  #     hydro 4 d 0.9
  #     hydro 1 s 0.4
  #     hydro 4 p 0.1
  #     hydro 5 f 9.8
  #  Further basis functions that fell out of the optimization - noise level...
  #     hydro 4 p 5
  #
  ################################################################################
  #
  #  FHI-aims code project
  #  VB, Fritz-Haber Institut, 2009
  #
  #  Suggested "light" defaults for F atom (to be pasted into control.in file)
  #  Be sure to double-check any results obtained with these settings for post-processing,
  #  e.g., with the "tight" defaults and larger basis sets.
  #
  ################################################################################
    species        F
  #     global species definitions
      nucleus             9
      mass                18.9984032
  #
      l_hartree           4
  #
      cut_pot             3.5  1.5  1.0
      basis_dep_cutoff    1e-4
  #
      radial_base         37 5.0
      radial_multiplier   1
      angular_grids specified
        division   0.4014  110
        division   0.5291  194
        division   0.6019  302
  #      division   0.6814  434
  #      division   0.7989  590
  #      division   0.8965  770
  #      division   1.3427  974
  #      outer_grid   974
        outer_grid   302
  ################################################################################
  #
  #  Definition of "minimal" basis
  #
  ################################################################################
  #     valence basis states
      valence      2  s   2.
      valence      2  p   5.
  #     ion occupancy
      ion_occ      2  s   1.
      ion_occ      2  p   4.
  ################################################################################
  #
  #  Suggested additional basis functions. For production calculations,
  #  uncomment them one after another (the most important basis functions are
  #  listed first).
  #
  #  Constructed for dimers: 1.2 A, 1.418 A, 1.75 A, 2.25 A, 3.25 A
  #
  ################################################################################
  #  "First tier" - improvements: -149.44 meV to -45.88 meV
  #     hydro 2 p 1.7
  #     hydro 3 d 7.4
  #     hydro 3 s 6.8
  #  "Second tier" - improvements: -12.96 meV to -1.56 meV
  #     hydro 4 f 11.2
  #     ionic 2 p auto
  #     hydro 1 s 0.75
  #     hydro 4 d 8.8
  #     hydro 5 g 16.8
  #  "Third tier" - improvements: -0.58 meV to -0.05 meV
  #     hydro 3 p 6.2
  #     hydro 3 s 3.2
  #     hydro 4 f 9.6
  #     hydro 3 s 19.6
  #     hydro 4 d 8.6
  #     hydro 5 g 14.4
  # Further basis functions: -0.05 meV and below
  #     hydro 3 p 4.2
  
  -----------------------------------------------------------------------
  Completed first pass over input file control.in .
  -----------------------------------------------------------------------
  
  
  -----------------------------------------------------------------------
  Parsing geometry.in (first pass over file, find array dimensions only).
  The contents of geometry.in will be repeated verbatim below
  unless switched off by setting 'verbatim_writeout .false.' .
  in the first line of geometry.in .
  -----------------------------------------------------------------------
  
  #=======================================================
  # FHI-aims file: /scratch/usr/bepdansp/aflow_binaries_vibes_1000_1999/pbe/light/minimal/atomic_zora/8/Al16F48_ICSD_72174/bandstructu
  # Created using the Atomic Simulation Environment (ASE)
  # Sat Jun 24 23:13:13 2023
  #=======================================================
  lattice_vector 10.7601043612510008 -0.0000000000000000 -0.0000000000000000
  lattice_vector 0.0000000000000000 10.7601043612510008 -0.0000000000000000
  lattice_vector -0.0000000000000000 -0.0000000000000000 7.5717987814090000
  atom_frac 0.0000000000000000 0.0000000000000000 0.0000000000000000 Al
  atom_frac 0.5000000000000000 0.5000000000000000 0.0000000000000000 Al
  atom_frac 0.5000000000000000 0.0000000000000000 0.0000000000000000 Al
  atom_frac 0.0000000000000000 0.5000000000000000 0.0000000000000000 Al
  atom_frac 0.2500000000000000 0.9148752315849999 0.3266432999020000 Al
  atom_frac 0.2500000000000000 0.5851247684150001 0.3266432999020000 Al
  atom_frac 0.5851247684150001 0.2500000000000000 0.3266432999020000 Al
  atom_frac 0.9148752315849999 0.2500000000000000 0.3266432999020000 Al
  atom_frac 0.7500000000000000 0.4148752315850000 0.6733567000980000 Al
  atom_frac 0.7500000000000000 0.0851247684150000 0.6733567000980000 Al
  atom_frac 0.4148752315850000 0.7500000000000000 0.6733567000980000 Al
  atom_frac 0.0851247684150000 0.7500000000000000 0.6733567000980000 Al
  atom_frac 0.2500000000000000 0.2500000000000000 0.4133809509470000 Al
  atom_frac 0.7500000000000000 0.7500000000000000 0.5866190490530000 Al
  atom_frac 0.2500000000000000 0.2500000000000000 0.9087148864770001 Al
  atom_frac 0.7500000000000000 0.7500000000000000 0.0912851135230000 Al
  atom_frac 0.6227168893960000 0.0507890998060000 0.8375315739950000 F
  atom_frac 0.8772831106040002 0.4492109001940001 0.8375315739950000 F
  atom_frac 0.4492109001940001 0.6227168893960000 0.8375315739950000 F
  atom_frac 0.0507890998060000 0.8772831106040002 0.8375315739950000 F
  atom_frac 0.3772831106040000 0.5507890998060000 0.1624684260050000 F
  atom_frac 0.1227168893960000 0.9492109001940000 0.1624684260050000 F
  atom_frac 0.5507890998060000 0.1227168893960000 0.1624684260050000 F
  atom_frac 0.9492109001940000 0.3772831106040000 0.1624684260050000 F
  atom_frac 0.3772831106040000 0.9492109001940000 0.1624684260050000 F
  atom_frac 0.1227168893960000 0.5507890998060000 0.1624684260050000 F
  atom_frac 0.5507890998060000 0.3772831106040000 0.1624684260050000 F
  atom_frac 0.9492109001940000 0.1227168893960000 0.1624684260050000 F
  atom_frac 0.6227168893960000 0.4492109001940001 0.8375315739950000 F
  atom_frac 0.8772831106040002 0.0507890998060000 0.8375315739950000 F
  atom_frac 0.4492109001940001 0.8772831106040002 0.8375315739950000 F
  atom_frac 0.0507890998060000 0.6227168893960000 0.8375315739950000 F
  atom_frac 0.2500000000000000 0.0771623321170000 0.4080074059120000 F
  atom_frac 0.2500000000000000 0.4228376678830000 0.4080074059120000 F
  atom_frac 0.4228376678830000 0.2500000000000000 0.4080074059120000 F
  atom_frac 0.0771623321170000 0.2500000000000000 0.4080074059120000 F
  atom_frac 0.7500000000000000 0.5771623321170000 0.5919925940880000 F
  atom_frac 0.7500000000000000 0.9228376678830000 0.5919925940880000 F
  atom_frac 0.5771623321170000 0.7500000000000000 0.5919925940880000 F
  atom_frac 0.9228376678830000 0.7500000000000000 0.5919925940880000 F
  atom_frac 0.1212332539290000 0.1212332539290000 0.9103284418610000 F
  atom_frac 0.3787667460710000 0.3787667460710000 0.9103284418610000 F
  atom_frac 0.3787667460710000 0.1212332539290000 0.9103284418610000 F
  atom_frac 0.1212332539290000 0.3787667460710000 0.9103284418610000 F
  atom_frac 0.8787667460710001 0.6212332539290001 0.0896715581390000 F
  atom_frac 0.6212332539290001 0.8787667460710001 0.0896715581390000 F
  atom_frac 0.6212332539290001 0.6212332539290001 0.0896715581390000 F
  atom_frac 0.8787667460710001 0.8787667460710001 0.0896715581390000 F
  atom_frac 0.1275940288860000 0.8724059711140001 0.5000000000000000 F
  atom_frac 0.3724059711140000 0.6275940288860000 0.5000000000000000 F
  atom_frac 0.6275940288860000 0.1275940288860000 0.5000000000000000 F
  atom_frac 0.8724059711140001 0.3724059711140000 0.5000000000000000 F
  atom_frac 0.8724059711140001 0.1275940288860000 0.5000000000000000 F
  atom_frac 0.6275940288860000 0.3724059711140000 0.5000000000000000 F
  atom_frac 0.3724059711140000 0.8724059711140001 0.5000000000000000 F
  atom_frac 0.1275940288860000 0.6275940288860000 0.5000000000000000 F
  atom_frac 0.7500000000000000 0.2500000000000000 0.2468335514610000 F
  atom_frac 0.2500000000000000 0.7500000000000000 0.2468335514610000 F
  atom_frac 0.2500000000000000 0.7500000000000000 0.7531664485390001 F
  atom_frac 0.7500000000000000 0.2500000000000000 0.7531664485390001 F
  atom_frac 0.2500000000000000 0.2500000000000000 0.6615496663620000 F
  atom_frac 0.7500000000000000 0.7500000000000000 0.3384503336380000 F
  atom_frac 0.2500000000000000 0.2500000000000000 0.1591623049340000 F
  atom_frac 0.7500000000000000 0.7500000000000000 0.8408376950660000 F
  
  -----------------------------------------------------------------------
  Completed first pass over input file geometry.in .
  -----------------------------------------------------------------------
  

  Basic array size parameters:
  | Number of species                 :        2
  | Number of atoms                   :       64
  | Number of lattice vectors         :        3
  | Max. basis fn. angular momentum   :        1
  | Max. atomic/ionic basis occupied n:        3
  | Max. number of basis fn. types    :        1
  | Max. radial fns per species/type  :        5
  | Max. logarithmic grid size        :     1340
  | Max. radial integration grid size :       41
  | Max. angular integration grid size:      302
  | Max. angular grid division number :        8
  | Radial grid for Hartree potential :     1340
  | Number of spin channels           :        1
  | Cube type output requested        :        1

------------------------------------------------------------
          Reading file control.in.
------------------------------------------------------------
  Convergence accuracy of self-consistent charge density:  0.1000E-04
  Convergence accuracy of sum of eigenvalues:  0.1000E-04
  Convergence accuracy of total energy:  0.1000E-04
  Maximum number of s.-c. iterations  :  8000
  Occupation type: Fermi broadening, width =   0.100000E+00 eV.
  Spin treatment: No spin polarisation.
  Charge =   0.000000E+00: Neutral system requested explicitly.
  Using pulay charge density mixing.
  Pulay mixing - number of memorized iterations:   10
  Charge density mixing - mixing parameter:     0.0100
  Using Kerker preconditioning with damping at q_0 =     0.1500E+01
  override_relativity: Explicitly overriding any built-in relativity checks.
  If you use this flag, you should really know what you are doing.
  override_illconditioning: Explicitly overriding any built-in checks for an ill-conditioned overlap matrix.
  *** WARNING: If you use this flag, you should really know what you are doing.
  *** DO NOT keep this flag set by default in all your control.in files.
  Found k-point grid:         5         5         7
  Found k-point grid multipliers for perturbative DOS :         4         4         3
  quadrupole moment will be written out.
  Hirshfeld charge analysis will be performed.
  Calculating density of states with
  | energy interval :-30.000000 15.000000
  | points & broadening : 45000  0.001000
  Calculating atom-projected density of states with
  | energy interval :-30.000000 15.000000
  | points & broadening : 45000  0.001000
  Calculating density of states with
  | energy interval :-30.000000 15.000000
  | points & broadening : 45000  0.001000
  Calculating atom-projected density of states with
  | energy interval :-30.000000 15.000000
  | points & broadening : 45000  0.001000
  Calculating density of states with
  | energy interval :-30.000000 15.000000
  | points & broadening : 45000  0.001000
  Calculating atom-projected density of states with
  | energy interval :-30.000000 15.000000
  | points & broadening : 45000  0.001000

  Plot band    1
  | begin  0.000000  0.000000  0.000000
  | end    0.000000  0.500000  0.000000
  | number of points:  100

  Plot band    2
  | begin  0.000000  0.500000  0.000000
  | end    0.500000  0.500000  0.000000
  | number of points:  100

  Plot band    3
  | begin  0.500000  0.500000  0.000000
  | end    0.000000  0.000000  0.000000
  | number of points:  100

  Plot band    4
  | begin  0.000000  0.000000  0.000000
  | end    0.000000  0.000000  0.500000
  | number of points:  100

  Plot band    5
  | begin  0.000000  0.000000  0.500000
  | end    0.000000  0.500000  0.500000
  | number of points:  100

  Plot band    6
  | begin  0.000000  0.500000  0.500000
  | end    0.500000  0.500000  0.500000
  | number of points:  100

  Plot band    7
  | begin  0.500000  0.500000  0.500000
  | end    0.000000  0.000000  0.500000
  | number of points:  100

  Plot band    8
  | begin  0.000000  0.500000  0.000000
  | end    0.000000  0.500000  0.500000
  | number of points:  100

  Plot band    9
  | begin  0.500000  0.500000  0.000000
  | end    0.500000  0.500000  0.500000
  | number of points:  100
  'cube'-style plottable output required: Total charge density.
  | Cube output options:
 * Cube origin was not provided following cube request. Will be using default value.
 * Cube edges were not provided following cube request. Defaults will be used.
 Standard cube format requested.

  Accuracy of occupation numbers  :  0.1000E-07
  Switching off the compensation of charge integration errors on the
  3D integration grid.
  XC: Using PBE gradient-corrected functionals.
  Scalar relativistic treatment of kinetic energy: on-site free-atom approximation to ZORA.
 
  Reading configuration options for species Al                  .
  | Found nuclear charge :  13.0000
  | Found atomic mass :    26.9815386000000      amu
  | Found l_max for Hartree potential  :   4
  | Found cutoff potl. onset [A], width [A], scale factor :    3.50000    1.50000    1.00000
  | Threshold for basis-dependent cutoff potential is   0.100000E-03
  | Found data for basic radial integration grid :    41 points, outermost radius =    5.000 A
  | Found multiplier for basic radial grid :   1
  | Found angular grid specification: user-specified.
  | Specified grid contains     4 separate shells.
  | Check grid settings after all constraints further below.
  | Found free-atom valence shell :  3 s   2.000
  | Found free-atom valence shell :  3 p   1.000
  | No ionic wave fns used. Skipping ion_occ.
  | No ionic wave fns used. Skipping ion_occ.
  Species Al                  : Missing cutoff potential type.
  Defaulting to exp(1/x)/(1-x)^2 type cutoff potential.
  Species Al: No 'logarithmic' tag. Using default grid for free atom:
  | Default logarithmic grid data [bohr] : 0.1000E-03 0.1000E+03 0.1012E+01
  Species Al: On-site basis accuracy parameter (for Gram-Schmidt orthonormalisation) not specified.
  Using default value basis_acc =  0.1000000E-03.
  Species Al                  : Using default innermost maximum threshold i_radial=  2 for radial functions.
  Species Al                  : Default cutoff onset for free atom density etc. : 0.35000000E+01 AA.
  Species Al                  : Basic radial grid will be enhanced according to radial_multiplier =   1, to contain    41 grid points.
 
  Reading configuration options for species F                   .
  | Found nuclear charge :   9.0000
  | Found atomic mass :    18.9984032000000      amu
  | Found l_max for Hartree potential  :   4
  | Found cutoff potl. onset [A], width [A], scale factor :    3.50000    1.50000    1.00000
  | Threshold for basis-dependent cutoff potential is   0.100000E-03
  | Found data for basic radial integration grid :    37 points, outermost radius =    5.000 A
  | Found multiplier for basic radial grid :   1
  | Found angular grid specification: user-specified.
  | Specified grid contains     4 separate shells.
  | Check grid settings after all constraints further below.
  | Found free-atom valence shell :  2 s   2.000
  | Found free-atom valence shell :  2 p   5.000
  | No ionic wave fns used. Skipping ion_occ.
  | No ionic wave fns used. Skipping ion_occ.
  Species F                   : Missing cutoff potential type.
  Defaulting to exp(1/x)/(1-x)^2 type cutoff potential.
  Species F : No 'logarithmic' tag. Using default grid for free atom:
  | Default logarithmic grid data [bohr] : 0.1000E-03 0.1000E+03 0.1012E+01
  Species F : On-site basis accuracy parameter (for Gram-Schmidt orthonormalisation) not specified.
  Using default value basis_acc =  0.1000000E-03.
  Species F                   : Using default innermost maximum threshold i_radial=  2 for radial functions.
  Species F                   : Default cutoff onset for free atom density etc. : 0.35000000E+01 AA.
  Species F                   : Basic radial grid will be enhanced according to radial_multiplier =   1, to contain    37 grid points.
 
  Finished reading input file 'control.in'.
 
------------------------------------------------------------


------------------------------------------------------------
          Reading geometry description geometry.in.
------------------------------------------------------------
  | The smallest distance between any two atoms is         1.85171575 AA.
  | The first atom of this pair is atom number                     10 .
  | The second atom of this pair is atom number                    38 .
  | Wigner-Seitz cell of the first atom image           0     0     0 .
  | (The Wigner-Seitz cell of the second atom is 0 0 0  by definition.)

  Symmetry information by spglib:
  | Precision set to  0.1E-04
  | Number of Operations  : 16
  | Space group           : 129
  | International         : P4/nmm
  | Schoenflies           : D4h^7
  Input structure read successfully.
  The structure contains       64 atoms,  and a total of        640.000 electrons.

  Input geometry:
  | Unit cell:
  |       10.76010436        0.00000000        0.00000000
  |        0.00000000       10.76010436        0.00000000
  |        0.00000000        0.00000000        7.57179878
  | Atomic structure:
  |       Atom                x [A]            y [A]            z [A]
  |    1: Species Al            0.00000000        0.00000000        0.00000000
  |    2: Species Al            5.38005218        5.38005218        0.00000000
  |    3: Species Al            5.38005218        0.00000000        0.00000000
  |    4: Species Al            0.00000000        5.38005218        0.00000000
  |    5: Species Al            2.69002609        9.84415297        2.47327734
  |    6: Species Al            2.69002609        6.29600357        2.47327734
  |    7: Species Al            6.29600357        2.69002609        2.47327734
  |    8: Species Al            9.84415297        2.69002609        2.47327734
  |    9: Species Al            8.07007827        4.46410079        5.09852144
  |   10: Species Al            8.07007827        0.91595139        5.09852144
  |   11: Species Al            4.46410079        8.07007827        5.09852144
  |   12: Species Al            0.91595139        8.07007827        5.09852144
  |   13: Species Al            2.69002609        2.69002609        3.13003738
  |   14: Species Al            8.07007827        8.07007827        4.44176140
  |   15: Species Al            2.69002609        2.69002609        6.88060627
  |   16: Species Al            8.07007827        8.07007827        0.69119251
  |   17: Species F             6.70049872        0.54649601        6.34162055
  |   18: Species F             9.43965782        4.83355617        6.34162055
  |   19: Species F             4.83355617        6.70049872        6.34162055
  |   20: Species F             0.54649601        9.43965782        6.34162055
  |   21: Species F             4.05960564        5.92654819        1.23017823
  |   22: Species F             1.32044654       10.21360835        1.23017823
  |   23: Species F             5.92654819        1.32044654        1.23017823
  |   24: Species F            10.21360835        4.05960564        1.23017823
  |   25: Species F             4.05960564       10.21360835        1.23017823
  |   26: Species F             1.32044654        5.92654819        1.23017823
  |   27: Species F             5.92654819        4.05960564        1.23017823
  |   28: Species F            10.21360835        1.32044654        1.23017823
  |   29: Species F             6.70049872        4.83355617        6.34162055
  |   30: Species F             9.43965782        0.54649601        6.34162055
  |   31: Species F             4.83355617        9.43965782        6.34162055
  |   32: Species F             0.54649601        6.70049872        6.34162055
  |   33: Species F             2.69002609        0.83027475        3.08934998
  |   34: Species F             2.69002609        4.54977743        3.08934998
  |   35: Species F             4.54977743        2.69002609        3.08934998
  |   36: Species F             0.83027475        2.69002609        3.08934998
  |   37: Species F             8.07007827        6.21032693        4.48244880
  |   38: Species F             8.07007827        9.92982961        4.48244880
  |   39: Species F             6.21032693        8.07007827        4.48244880
  |   40: Species F             9.92982961        8.07007827        4.48244880
  |   41: Species F             1.30448246        1.30448246        6.89282379
  |   42: Species F             4.07556972        4.07556972        6.89282379
  |   43: Species F             4.07556972        1.30448246        6.89282379
  |   44: Species F             1.30448246        4.07556972        6.89282379
  |   45: Species F             9.45562190        6.68453464        0.67897499
  |   46: Species F             6.68453464        9.45562190        0.67897499
  |   47: Species F             6.68453464        6.68453464        0.67897499
  |   48: Species F             9.45562190        9.45562190        0.67897499
  |   49: Species F             1.37292507        9.38717929        3.78589939
  |   50: Species F             4.00712711        6.75297725        3.78589939
  |   51: Species F             6.75297725        1.37292507        3.78589939
  |   52: Species F             9.38717929        4.00712711        3.78589939
  |   53: Species F             9.38717929        1.37292507        3.78589939
  |   54: Species F             6.75297725        4.00712711        3.78589939
  |   55: Species F             4.00712711        9.38717929        3.78589939
  |   56: Species F             1.37292507        6.75297725        3.78589939
  |   57: Species F             8.07007827        2.69002609        1.86897398
  |   58: Species F             2.69002609        8.07007827        1.86897398
  |   59: Species F             2.69002609        8.07007827        5.70282480
  |   60: Species F             8.07007827        2.69002609        5.70282480
  |   61: Species F             2.69002609        2.69002609        5.00912096
  |   62: Species F             8.07007827        8.07007827        2.56267782
  |   63: Species F             2.69002609        2.69002609        1.20514495
  |   64: Species F             8.07007827        8.07007827        6.36665383

  Lattice parameters for 3D lattice (in Angstroms) :    10.760104   10.760104    7.571799
  Angle(s) between unit vectors (in degrees)       :    90.000000   90.000000   90.000000


  Quantities derived from the lattice vectors (in Angstrom^-1):
  | Reciprocal lattice vector 1:  0.583933  0.000000  0.000000
  | Reciprocal lattice vector 2:  0.000000  0.583933  0.000000
  | Reciprocal lattice vector 3:  0.000000  0.000000  0.829814
  | Unit cell volume                               :   0.876662E+03  Angstrom^3

  Fractional coordinates:
                         L1                L2                L3
       atom_frac         0.00000000        0.00000000        0.00000000  Al
       atom_frac         0.50000000        0.50000000        0.00000000  Al
       atom_frac         0.50000000        0.00000000        0.00000000  Al
       atom_frac         0.00000000        0.50000000        0.00000000  Al
       atom_frac         0.25000000        0.91487523        0.32664330  Al
       atom_frac         0.25000000        0.58512477        0.32664330  Al
       atom_frac         0.58512477        0.25000000        0.32664330  Al
       atom_frac         0.91487523        0.25000000        0.32664330  Al
       atom_frac         0.75000000        0.41487523        0.67335670  Al
       atom_frac         0.75000000        0.08512477        0.67335670  Al
       atom_frac         0.41487523        0.75000000        0.67335670  Al
       atom_frac         0.08512477        0.75000000        0.67335670  Al
       atom_frac         0.25000000        0.25000000        0.41338095  Al
       atom_frac         0.75000000        0.75000000        0.58661905  Al
       atom_frac         0.25000000        0.25000000        0.90871489  Al
       atom_frac         0.75000000        0.75000000        0.09128511  Al
       atom_frac         0.62271689        0.05078910        0.83753157  F
       atom_frac         0.87728311        0.44921090        0.83753157  F
       atom_frac         0.44921090        0.62271689        0.83753157  F
       atom_frac         0.05078910        0.87728311        0.83753157  F
       atom_frac         0.37728311        0.55078910        0.16246843  F
       atom_frac         0.12271689        0.94921090        0.16246843  F
       atom_frac         0.55078910        0.12271689        0.16246843  F
       atom_frac         0.94921090        0.37728311        0.16246843  F
       atom_frac         0.37728311        0.94921090        0.16246843  F
       atom_frac         0.12271689        0.55078910        0.16246843  F
       atom_frac         0.55078910        0.37728311        0.16246843  F
       atom_frac         0.94921090        0.12271689        0.16246843  F
       atom_frac         0.62271689        0.44921090        0.83753157  F
       atom_frac         0.87728311        0.05078910        0.83753157  F
       atom_frac         0.44921090        0.87728311        0.83753157  F
       atom_frac         0.05078910        0.62271689        0.83753157  F
       atom_frac         0.25000000        0.07716233        0.40800741  F
       atom_frac         0.25000000        0.42283767        0.40800741  F
       atom_frac         0.42283767        0.25000000        0.40800741  F
       atom_frac         0.07716233        0.25000000        0.40800741  F
       atom_frac         0.75000000        0.57716233        0.59199259  F
       atom_frac         0.75000000        0.92283767        0.59199259  F
       atom_frac         0.57716233        0.75000000        0.59199259  F
       atom_frac         0.92283767        0.75000000        0.59199259  F
       atom_frac         0.12123325        0.12123325        0.91032844  F
       atom_frac         0.37876675        0.37876675        0.91032844  F
       atom_frac         0.37876675        0.12123325        0.91032844  F
       atom_frac         0.12123325        0.37876675        0.91032844  F
       atom_frac         0.87876675        0.62123325        0.08967156  F
       atom_frac         0.62123325        0.87876675        0.08967156  F
       atom_frac         0.62123325        0.62123325        0.08967156  F
       atom_frac         0.87876675        0.87876675        0.08967156  F
       atom_frac         0.12759403        0.87240597        0.50000000  F
       atom_frac         0.37240597        0.62759403        0.50000000  F
       atom_frac         0.62759403        0.12759403        0.50000000  F
       atom_frac         0.87240597        0.37240597        0.50000000  F
       atom_frac         0.87240597        0.12759403        0.50000000  F
       atom_frac         0.62759403        0.37240597        0.50000000  F
       atom_frac         0.37240597        0.87240597        0.50000000  F
       atom_frac         0.12759403        0.62759403        0.50000000  F
       atom_frac         0.75000000        0.25000000        0.24683355  F
       atom_frac         0.25000000        0.75000000        0.24683355  F
       atom_frac         0.25000000        0.75000000        0.75316645  F
       atom_frac         0.75000000        0.25000000        0.75316645  F
       atom_frac         0.25000000        0.25000000        0.66154967  F
       atom_frac         0.75000000        0.75000000        0.33845033  F
       atom_frac         0.25000000        0.25000000        0.15916230  F
       atom_frac         0.75000000        0.75000000        0.84083770  F

 
  Finished reading input file 'geometry.in'.
 

 
  Consistency checks for stacksize environment parameter are next.
 
  | Maximum stacksize for task 0: unlimited
  | Maximum stacksize for task 1: unlimited
  | Maximum stacksize for task 2: unlimited
  | Maximum stacksize for task 3: unlimited
  | Maximum stacksize for task 4: unlimited
  | Maximum stacksize for task 5: unlimited
  | Maximum stacksize for task 6: unlimited
  | Maximum stacksize for task 7: unlimited
  | Maximum stacksize for task 8: unlimited
  | Maximum stacksize for task 9: unlimited
  | Maximum stacksize for task 10: unlimited
  | Maximum stacksize for task 11: unlimited
  | Maximum stacksize for task 12: unlimited
  | Maximum stacksize for task 13: unlimited
  | Maximum stacksize for task 14: unlimited
  | Maximum stacksize for task 15: unlimited
  | Maximum stacksize for task 16: unlimited
  | Maximum stacksize for task 17: unlimited
  | Maximum stacksize for task 18: unlimited
  | Maximum stacksize for task 19: unlimited
  | Maximum stacksize for task 20: unlimited
  | Maximum stacksize for task 21: unlimited
  | Maximum stacksize for task 22: unlimited
  | Maximum stacksize for task 23: unlimited
  | Maximum stacksize for task 24: unlimited
  | Maximum stacksize for task 25: unlimited
  | Maximum stacksize for task 26: unlimited
  | Maximum stacksize for task 27: unlimited
  | Maximum stacksize for task 28: unlimited
  | Maximum stacksize for task 29: unlimited
  | Maximum stacksize for task 30: unlimited
  | Maximum stacksize for task 31: unlimited
  | Maximum stacksize for task 32: unlimited
  | Maximum stacksize for task 33: unlimited
  | Maximum stacksize for task 34: unlimited
  | Maximum stacksize for task 35: unlimited
  | Maximum stacksize for task 36: unlimited
  | Maximum stacksize for task 37: unlimited
  | Maximum stacksize for task 38: unlimited
  | Maximum stacksize for task 39: unlimited
  | Current stacksize for task 0: unlimited
  | Current stacksize for task 1: unlimited
  | Current stacksize for task 2: unlimited
  | Current stacksize for task 3: unlimited
  | Current stacksize for task 4: unlimited
  | Current stacksize for task 5: unlimited
  | Current stacksize for task 6: unlimited
  | Current stacksize for task 7: unlimited
  | Current stacksize for task 8: unlimited
  | Current stacksize for task 9: unlimited
  | Current stacksize for task 10: unlimited
  | Current stacksize for task 11: unlimited
  | Current stacksize for task 12: unlimited
  | Current stacksize for task 13: unlimited
  | Current stacksize for task 14: unlimited
  | Current stacksize for task 15: unlimited
  | Current stacksize for task 16: unlimited
  | Current stacksize for task 17: unlimited
  | Current stacksize for task 18: unlimited
  | Current stacksize for task 19: unlimited
  | Current stacksize for task 20: unlimited
  | Current stacksize for task 21: unlimited
  | Current stacksize for task 22: unlimited
  | Current stacksize for task 23: unlimited
  | Current stacksize for task 24: unlimited
  | Current stacksize for task 25: unlimited
  | Current stacksize for task 26: unlimited
  | Current stacksize for task 27: unlimited
  | Current stacksize for task 28: unlimited
  | Current stacksize for task 29: unlimited
  | Current stacksize for task 30: unlimited
  | Current stacksize for task 31: unlimited
  | Current stacksize for task 32: unlimited
  | Current stacksize for task 33: unlimited
  | Current stacksize for task 34: unlimited
  | Current stacksize for task 35: unlimited
  | Current stacksize for task 36: unlimited
  | Current stacksize for task 37: unlimited
  | Current stacksize for task 38: unlimited
  | Current stacksize for task 39: unlimited
 
  Consistency checks for the contents of control.in are next.
 
  MPI_IN_PLACE appears to work with this MPI implementation.
  | Keeping use_mpi_in_place .true. (see manual).
  Target number of points in a grid batch is not set. Defaulting to  100
  Method for grid partitioning is not set. Defaulting to parallel hash+maxmin partitioning.
  Batch size limit is not set. Defaulting to    200
  By default, will store active basis functions for each batch.
  If in need of memory, prune_basis_once .false. can be used to disable this option.
  communication_type for Hartree potential was not specified.
  Defaulting to calc_hartree .
  Pulay mixer: Number of initial linear mixing iterations not set.
  Defaulting to    0 iterations.
  Work space size for distributed Hartree potential not set.
  Defaulting to   0.200000E+03 MB.
  Algorithm-dependent basis array size parameters:
  | n_max_pulay                         :       10
  Presetting      1001 iterations before the initial mixing cycle
  is restarted anyway using the sc_init_iter criterion / keyword.
  Presetting a factor      1.000 between actual scf density residual
  and density convergence criterion sc_accuracy_rho below which sc_init_iter
  takes no effect.
  Calculation of forces was not defined in control.in. No forces will be calculated.
  Geometry relaxation not requested: no relaxation will be performed.
  No accuracy limit for integral partition fn. given. Defaulting to  0.1000E-14.
  No threshold value for u(r) in integrations given. Defaulting to  0.1000E-05.
  No threshold value for occupation numbers given. Defaulting to  0.0000E+00.
  No accuracy for fermi level given. Defaulting to  0.1000E-19.
  Maximum # of iterations to find E_F not set. Defaulting to  200.
  Preferred method for the eigenvalue solver ('KS_method') not specified in 'control.in'.
  Defaulting to serial version, LAPACK (via ELSI), since more k-points than CPUs available.
  Will not use alltoall communication since running on < 1024 CPUs.
  Threshold for basis singularities not set.
  Default threshold for basis singularities:  0.1000E-04
  partition_type (choice of integration weights) for integrals was not specified.
  | Using a version of the partition function of Stratmann and coworkers ('stratmann_sparse').
  | At each grid point, the set of atoms used to build the partition table is smoothly restricted to
  | only those atoms whose free-atom density would be non-zero at that grid point.
  Partitioning for Hartree potential was not defined. Using partition_type for integrals.
  | Adjusted default value of keyword multip_moments_threshold to:       0.10000000E-11
  | This value may affect high angular momentum components of the Hartree potential in periodic systems.
  Angular momentum expansion for Kerker preconditioner not set explicitly.
  | Using default value of   0
  No explicit requirement for turning off preconditioner.
  | By default, it will be turned off when the charge convergence reaches
  | sc_accuracy_rho  =   0.100000E-04
  | sc_accuracy_eev  =   0.100000E-04
  | sc_accuracy_etot =   0.100000E-04
  No special mixing parameter while Kerker preconditioner is on.
  Using default: charge_mix_param =     0.0100.
  No q(lm)/r^(l+1) cutoff set for long-range Hartree potential.
  | Using default value of  0.100000E-09 .
  | Verify using the multipole_threshold keyword.
  Defaulting to new monopole extrapolation.
  Density update method: automatic selection selected.
  Using density matrix based charge density update.
  Using density matrix based charge density update.
  Using packed matrix style: index .
  Defaulting to use time-reversal symmetry for k-point grid.
  * Volumetric cube output requested. Tightening default wave_threshold to 1d-8
  Set 'collect_eigenvectors' to be '.true.' for all serial calculations. This is mandatory.
  Set 'collect_eigenvectors' to be '.true.' for KS_method lapack_fast and serial.
 
  Consistency checks for the contents of geometry.in are next.
 

  Range separation radius for Ewald summation (hartree_convergence_parameter):      3.37179818 bohr.
  Number of empty states per atom not set in control.in - providing a guess from actual geometry.
  | Total number of empty states used during s.c.f. cycle:      192
  If you use a very high smearing, use empty_states (per atom!) in control.in to increase this value.
  * Since a DOS, bandstructure or SOC calculation was requested, the number of empty states requested was INCREASED.
  | Number of empty states (old):  384.00000
  | Number of empty states (new):  394.00000

  Structure-dependent array size parameters: 
  | Maximum number of distinct radial functions  :        8
  | Maximum number of basis functions            :      384
  | Number of Kohn-Sham states (occupied + empty):      517
------------------------------------------------------------

------------------------------------------------------------
          Preparing all fixed parts of the calculation.
------------------------------------------------------------
  Determining machine precision:
    2.225073858507201E-308
  Setting up grids for atomic and cluster calculations.

  Creating wave function, potential, and density for free atoms.
  Runtime choices for atomic solver:
  | atomic solver xc        : PBE
  | compute density gradient: 1
  | compute kinetic density : F

  Species: Al

  List of occupied orbitals and eigenvalues:
    n    l              occ      energy [Ha]    energy [eV]
    1    0           2.0000       -55.621123     -1513.5278
    2    0           2.0000        -3.957030      -107.6763
    3    0           2.0000        -0.272233        -7.4078
    2    1           6.0000        -2.540949       -69.1427
    3    1           1.0000        -0.083300        -2.2667


  Species: F

  List of occupied orbitals and eigenvalues:
    n    l              occ      energy [Ha]    energy [eV]
    1    0           2.0000       -24.399611      -663.9472
    2    0           2.0000        -1.098702       -29.8972
    2    1           5.0000        -0.408210       -11.1080


  Adding cutoff potential to free-atom effective potential.
  Creating fixed part of basis set: Ionic, confined, hydrogenic.
  Creating atomic-like basis functions for current effective potential.

  Species Al                  :

  List of atomic basis orbitals and eigenvalues:
    n    l      energy [Ha]    energy [eV]    outer radius [A]
    1    0       -55.621123     -1513.5278       1.085686
    2    0        -3.957030      -107.6763       3.967199
    3    0        -0.272233        -7.4078       4.707750
    2    1        -2.540949       -69.1427       4.269130
    3    1        -0.083300        -2.2667       4.707750


  Species F                   :

  List of atomic basis orbitals and eigenvalues:
    n    l      energy [Ha]    energy [eV]    outer radius [A]
    1    0       -24.399611      -663.9472       1.607028
    2    0        -1.098702       -29.8972       4.542649
    2    1        -0.408210       -11.1080       4.655085

  Assembling full basis from fixed parts.
  | Species Al :   atomic orbital   1 s accepted.
  | Species Al :   atomic orbital   2 s accepted.
  | Species Al :   atomic orbital   3 s accepted.
  | Species Al :   atomic orbital   2 p accepted.
  | Species Al :   atomic orbital   3 p accepted.
  | Species F :   atomic orbital   1 s accepted.
  | Species F :   atomic orbital   2 s accepted.
  | Species F :   atomic orbital   2 p accepted.
  Reducing total number of  Kohn-Sham states to      384.
 
  Basis size parameters after reduction:
  | Total number of radial functions:        8
  | Total number of basis functions :      384
 
  Per-task memory consumption for arrays in subroutine allocate_ext:
  |           2.755056MB.
  Testing on-site integration grid accuracy.
  |  Species  Function  <phi|h_atom|phi> (log., in eV)  <phi|h_atom|phi> (rad., in eV)
           1        1              -1513.5277717935              -1513.5271881332
           1        2               -107.6762691836               -107.6762662489
           1        3                 -7.4117336211                 -7.4174880489
           1        4                -69.1427313144                -69.1427312731
           1        5                 -2.2911626051                 -2.3300110455 ***
           2        6               -663.9471986398               -663.9470363334
           2        7                -29.8972105603                -29.8972101736
           2        8                -11.1080115307                -11.1080620173
 * Note: Onsite integrals marked "***" above are less accurate than
 * onsite_accuracy_threshold =    0.03000 eV. Usually, this is harmless.
 * However, one integral did have a negative value. This integral could be important.
 * When in doubt, tighten the "radial" and/or "radial_multiplier" flags to check.

  Preparing densities etc. for the partition functions (integrals / Hartree potential).

  Preparations completed.
  max(cpu_time)          :      0.139 s.
  Wall clock time (cpu1) :      0.140 s.
------------------------------------------------------------

  Initializing index lists of integration centers etc. from given atomic structure:
  Mapping all atomic coordinates to central unit cell.

  Initializing the k-points
  Using symmetry for reducing the k-points
  | k-points reduced from:      175 to       88
  | Number of k-points                             :        88
  The eigenvectors in the calculations are COMPLEX.
  | K-points in task   0:         2
  | K-points in task   1:         3
  | K-points in task   2:         3
  | K-points in task   3:         3
  | K-points in task   4:         3
  | K-points in task   5:         3
  | K-points in task   6:         3
  | K-points in task   7:         3
  | K-points in task   8:         3
  | K-points in task   9:         2
  | K-points in task  10:         2
  | K-points in task  11:         2
  | K-points in task  12:         2
  | K-points in task  13:         2
  | K-points in task  14:         2
  | K-points in task  15:         2
  | K-points in task  16:         2
  | K-points in task  17:         2
  | K-points in task  18:         2
  | K-points in task  19:         2
  | K-points in task  20:         2
  | K-points in task  21:         2
  | K-points in task  22:         2
  | K-points in task  23:         2
  | K-points in task  24:         2
  | K-points in task  25:         2
  | K-points in task  26:         2
  | K-points in task  27:         2
  | K-points in task  28:         2
  | K-points in task  29:         2
  | K-points in task  30:         2
  | K-points in task  31:         2
  | K-points in task  32:         2
  | K-points in task  33:         2
  | K-points in task  34:         2
  | K-points in task  35:         2
  | K-points in task  36:         2
  | K-points in task  37:         2
  | K-points in task  38:         2
  | K-points in task  39:         2
  | Number of basis functions in the Hamiltonian integrals :      2421
  | Number of basis functions in a single unit cell        :       384
  | Number of centers in hartree potential         :      2084
  | Number of centers in hartree multipole         :      1304
  | Number of centers in electron density summation:      1014
  | Number of centers in basis integrals           :      1072
  | Number of centers in integrals                 :       481
  | Number of centers in hamiltonian               :      1030
  | Consuming         46 KiB for k_phase.
  | Number of super-cells (origin) [n_cells]                     :         175
  | Number of super-cells (after PM_index) [n_cells]             :          34
  | Number of super-cells in hamiltonian [n_cells_in_hamiltonian]:          34
  | Size of matrix packed + index [n_hamiltonian_matrix_size] :      229585

------------------------------------------------------------
          Begin self-consistency loop: Initialization.

          Date     :  20230624, Time     :  233829.178
------------------------------------------------------------
  | Estimated reciprocal-space cutoff momentum G_max:         2.78756169 bohr^-1 .
  | Reciprocal lattice points for long-range Hartree potential:    2128
  Partitioning the integration grid into batches with parallel hashing+maxmin method.
  | Number of batches:     6392
  | Maximal batch size:     125
  | Minimal batch size:      53
  | Average batch size:      76.696
  | Standard deviation of batch sizes:      21.788

  Integration load balanced across    40 MPI tasks.
  Work distribution over tasks is as follows:
  Task     0 has      12266 integration points.
  Task     1 has      12283 integration points.
  Task     2 has      12226 integration points.
  Task     3 has      12277 integration points.
  Task     4 has      12211 integration points.
  Task     5 has      12276 integration points.
  Task     6 has      12279 integration points.
  Task     7 has      12214 integration points.
  Task     8 has      12263 integration points.
  Task     9 has      12312 integration points.
  Task    10 has      12256 integration points.
  Task    11 has      12280 integration points.
  Task    12 has      12266 integration points.
  Task    13 has      12277 integration points.
  Task    14 has      12273 integration points.
  Task    15 has      12223 integration points.
  Task    16 has      12232 integration points.
  Task    17 has      12284 integration points.
  Task    18 has      12233 integration points.
  Task    19 has      12250 integration points.
  Task    20 has      12257 integration points.
  Task    21 has      12299 integration points.
  Task    22 has      12212 integration points.
  Task    23 has      12216 integration points.
  Task    24 has      12242 integration points.
  Task    25 has      12264 integration points.
  Task    26 has      12229 integration points.
  Task    27 has      12228 integration points.
  Task    28 has      12231 integration points.
  Task    29 has      12280 integration points.
  Task    30 has      12270 integration points.
  Task    31 has      12279 integration points.
  Task    32 has      12293 integration points.
  Task    33 has      12260 integration points.
  Task    34 has      12250 integration points.
  Task    35 has      12283 integration points.
  Task    36 has      12228 integration points.
  Task    37 has      12236 integration points.
  Task    38 has      12276 integration points.
  Task    39 has      12226 integration points.
  Initializing partition tables, free-atom densities, potentials, etc. across the integration grid (initialize_grid_storage).
  | initialize_grid_storage: Actual outermost partition radius vs. multipole_radius_free
  | (-- VB: in principle, multipole_radius_free should be larger, hence this output)
  | Species        1: Confinement radius =              4.999999999999999 AA, multipole_radius_free =              5.004487022111096 AA.
  | Species        1: outer_partition_radius set to              5.004487022111096 AA .
  | Species        2: Confinement radius =              4.999999999999999 AA, multipole_radius_free =              5.009370088163274 AA.
  | Species        2: outer_partition_radius set to              5.009370088163274 AA .
  | The sparse table of interatomic distances needs       2512.34 kbyte instead of      9193.47 kbyte of memory.
  | Net number of integration points:   490240
  | of which are non-zero points    :   426034
  | Numerical average free-atom electrostatic potential    :     -9.59694030 eV
  Renormalizing the initial density to the exact electron count on the 3D integration grid.
  | Initial density: Formal number of electrons (from input files) :     640.0000000000
  | Integrated number of electrons on 3D grid     :     639.9999016207
  | Charge integration error                      :      -0.0000983793
  | Normalization factor for density and gradient :       1.0000001537
  Obtaining max. number of non-zero basis functions in each batch (get_n_compute_maxes).
  | Maximal number of non-zero basis functions:      227 in task     0
  | Maximal number of non-zero basis functions:      235 in task     1
  | Maximal number of non-zero basis functions:      233 in task     2
  | Maximal number of non-zero basis functions:      232 in task     3
  | Maximal number of non-zero basis functions:      233 in task     4
  | Maximal number of non-zero basis functions:      228 in task     5
  | Maximal number of non-zero basis functions:      231 in task     6
  | Maximal number of non-zero basis functions:      238 in task     7
  | Maximal number of non-zero basis functions:      235 in task     8
  | Maximal number of non-zero basis functions:      228 in task     9
  | Maximal number of non-zero basis functions:      233 in task    10
  | Maximal number of non-zero basis functions:      230 in task    11
  | Maximal number of non-zero basis functions:      234 in task    12
  | Maximal number of non-zero basis functions:      230 in task    13
  | Maximal number of non-zero basis functions:      234 in task    14
  | Maximal number of non-zero basis functions:      239 in task    15
  | Maximal number of non-zero basis functions:      230 in task    16
  | Maximal number of non-zero basis functions:      233 in task    17
  | Maximal number of non-zero basis functions:      224 in task    18
  | Maximal number of non-zero basis functions:      230 in task    19
  | Maximal number of non-zero basis functions:      232 in task    20
  | Maximal number of non-zero basis functions:      232 in task    21
  | Maximal number of non-zero basis functions:      234 in task    22
  | Maximal number of non-zero basis functions:      232 in task    23
  | Maximal number of non-zero basis functions:      238 in task    24
  | Maximal number of non-zero basis functions:      228 in task    25
  | Maximal number of non-zero basis functions:      227 in task    26
  | Maximal number of non-zero basis functions:      234 in task    27
  | Maximal number of non-zero basis functions:      234 in task    28
  | Maximal number of non-zero basis functions:      236 in task    29
  | Maximal number of non-zero basis functions:      231 in task    30
  | Maximal number of non-zero basis functions:      233 in task    31
  | Maximal number of non-zero basis functions:      230 in task    32
  | Maximal number of non-zero basis functions:      227 in task    33
  | Maximal number of non-zero basis functions:      231 in task    34
  | Maximal number of non-zero basis functions:      231 in task    35
  | Maximal number of non-zero basis functions:      228 in task    36
  | Maximal number of non-zero basis functions:      231 in task    37
  | Maximal number of non-zero basis functions:      232 in task    38
  | Maximal number of non-zero basis functions:      231 in task    39
  Allocating        4.500 MB for KS_eigenvector_complex
  Integrating Hamiltonian matrix: batch-based integration.
  Time summed over all CPUs for integration: real work       11.237 s, elapsed       11.448 s
  Integrating overlap matrix.
  Time summed over all CPUs for integration: real work        7.207 s, elapsed        7.339 s
  Decreasing sparse matrix size:
  | Tolerance:  0.1000E-12
  Hamiltonian matrix
  | Array has   174076 nonzero elements out of   229585 elements
  | Sparsity factor is 0.242
  Overlap matrix
  | Array has   161060 nonzero elements out of   229585 elements
  | Sparsity factor is 0.298
  New size of hamiltonian matrix:      174461

  Updating Kohn-Sham eigenvalues and eigenvectors using ELSI and the (modified) LAPACK eigensolver.
  Singularity check in k-point 40, task 0 (analysis for other k-points/tasks may follow below):
  Overlap matrix is not singular
  | Lowest and highest eigenvalues :  0.1966E+00,  0.2881E+01
  Finished singularity check of overlap matrix
  | Time :     0.034 s
  Starting LAPACK eigensolver
  Finished Cholesky decomposition
  | Time :     0.005 s
  Finished transformation to standard eigenproblem
  | Time :     0.011 s
  Finished solving standard eigenproblem
  | Time :     0.043 s
  Finished back-transformation of eigenvectors
  | Time :     0.006 s

  Obtaining occupation numbers and electronic chemical potential using ELSI.
  | Note that, for insulating systems, the printed 'chemical potential' value is not uniquely defined.
  | It can be anywhere in the energy gap, as long as it correctly separates occupied and unoccupied states.
  | In systems with a gap, the physically relevant chemical potential is the VBM or HOMO.

  | Chemical potential (Fermi level):    -7.88782656 eV
  Writing Kohn-Sham eigenvalues.
  K-point:       1 at    0.000000    0.000000    0.000000 (in units of recip. lattice)

  State    Occupation    Eigenvalue [Ha]    Eigenvalue [eV]
      1       2.00000         -55.627648        -1513.70531
      2       2.00000         -55.627648        -1513.70531
      3       2.00000         -55.627282        -1513.69535
      4       2.00000         -55.627282        -1513.69535
      5       2.00000         -55.627282        -1513.69535
      6       2.00000         -55.627282        -1513.69535
      7       2.00000         -55.627282        -1513.69535
      8       2.00000         -55.627282        -1513.69535
      9       2.00000         -55.627282        -1513.69535
     10       2.00000         -55.627282        -1513.69535
     11       2.00000         -55.626646        -1513.67805
     12       2.00000         -55.626646        -1513.67805
     13       2.00000         -55.626646        -1513.67805
     14       2.00000         -55.626646        -1513.67805
     15       2.00000         -55.626126        -1513.66391
     16       2.00000         -55.626126        -1513.66391
     17       2.00000         -24.468925         -665.83332
     18       2.00000         -24.468925         -665.83332
     19       2.00000         -24.468925         -665.83332
     20       2.00000         -24.468925         -665.83332
     21       2.00000         -24.468925         -665.83332
     22       2.00000         -24.468925         -665.83332
     23       2.00000         -24.468925         -665.83332
     24       2.00000         -24.468925         -665.83332
     25       2.00000         -24.465259         -665.73357
     26       2.00000         -24.465259         -665.73357
     27       2.00000         -24.465259         -665.73357
     28       2.00000         -24.465259         -665.73357
     29       2.00000         -24.464969         -665.72569
     30       2.00000         -24.464969         -665.72569
     31       2.00000         -24.462922         -665.66998
     32       2.00000         -24.462922         -665.66998
     33       2.00000         -24.462922         -665.66998
     34       2.00000         -24.462922         -665.66998
     35       2.00000         -24.462922         -665.66998
     36       2.00000         -24.462922         -665.66998
     37       2.00000         -24.462922         -665.66998
     38       2.00000         -24.462922         -665.66998
     39       2.00000         -24.462922         -665.66998
     40       2.00000         -24.462922         -665.66998
     41       2.00000         -24.462922         -665.66998
     42       2.00000         -24.462922         -665.66998
     43       2.00000         -24.462922         -665.66998
     44       2.00000         -24.462922         -665.66998
     45       2.00000         -24.462922         -665.66998
     46       2.00000         -24.462922         -665.66998
     47       2.00000         -24.458437         -665.54793
     48       2.00000         -24.458437         -665.54793
     49       2.00000         -24.457685         -665.52748
     50       2.00000         -24.457685         -665.52748
     51       2.00000         -24.457685         -665.52748
     52       2.00000         -24.457685         -665.52748
     53       2.00000         -24.457685         -665.52748
     54       2.00000         -24.457685         -665.52748
     55       2.00000         -24.457685         -665.52748
     56       2.00000         -24.457685         -665.52748
     57       2.00000         -24.449751         -665.31158
     58       2.00000         -24.449751         -665.31158
     59       2.00000         -24.449751         -665.31158
     60       2.00000         -24.449751         -665.31158
     61       2.00000         -24.449751         -665.31158
     62       2.00000         -24.449751         -665.31158
     63       2.00000         -24.449751         -665.31158
     64       2.00000         -24.449751         -665.31158
     65       2.00000          -3.967314         -107.95610
     66       2.00000          -3.967314         -107.95610
     67       2.00000          -3.966748         -107.94070
     68       2.00000          -3.966748         -107.94069
     69       2.00000          -3.966748         -107.94069
     70       2.00000          -3.966748         -107.94069
     71       2.00000          -3.966748         -107.94069
     72       2.00000          -3.966748         -107.94069
     73       2.00000          -3.966747         -107.94069
     74       2.00000          -3.966747         -107.94069
     75       2.00000          -3.965699         -107.91217
     76       2.00000          -3.965699         -107.91217
     77       2.00000          -3.965699         -107.91216
     78       2.00000          -3.965699         -107.91216
     79       2.00000          -3.964867         -107.88953
     80       2.00000          -3.964867         -107.88953
     81       2.00000          -2.551808          -69.43823
     82       2.00000          -2.551808          -69.43823
     83       2.00000          -2.551808          -69.43823
     84       2.00000          -2.551808          -69.43823
     85       2.00000          -2.551370          -69.42631
     86       2.00000          -2.551369          -69.42629
     87       2.00000          -2.551369          -69.42628
     88       2.00000          -2.551369          -69.42627
     89       2.00000          -2.551345          -69.42563
     90       2.00000          -2.551345          -69.42563
     91       2.00000          -2.551345          -69.42562
     92       2.00000          -2.551345          -69.42562
     93       2.00000          -2.551321          -69.42497
     94       2.00000          -2.551321          -69.42497
     95       2.00000          -2.550922          -69.41413
     96       2.00000          -2.550922          -69.41413
     97       2.00000          -2.550911          -69.41382
     98       2.00000          -2.550911          -69.41382
     99       2.00000          -2.550911          -69.41382
    100       2.00000          -2.550911          -69.41382
    101       2.00000          -2.550899          -69.41351
    102       2.00000          -2.550899          -69.41349
    103       2.00000          -2.550891          -69.41328
    104       2.00000          -2.550890          -69.41325
    105       2.00000          -2.550883          -69.41307
    106       2.00000          -2.550883          -69.41307
    107       2.00000          -2.550883          -69.41306
    108       2.00000          -2.550883          -69.41306
    109       2.00000          -2.550880          -69.41299
    110       2.00000          -2.550880          -69.41297
    111       2.00000          -2.550278          -69.39661
    112       2.00000          -2.550278          -69.39661
    113       2.00000          -2.550278          -69.39661
    114       2.00000          -2.550278          -69.39661
    115       2.00000          -2.550161          -69.39340
    116       2.00000          -2.550160          -69.39339
    117       2.00000          -2.550160          -69.39339
    118       2.00000          -2.550160          -69.39338
    119       2.00000          -2.549574          -69.37745
    120       2.00000          -2.549574          -69.37744
    121       2.00000          -2.549429          -69.37349
    122       2.00000          -2.549429          -69.37348
    123       2.00000          -2.549429          -69.37348
    124       2.00000          -2.549428          -69.37347
    125       2.00000          -2.548841          -69.35749
    126       2.00000          -2.548841          -69.35749
    127       2.00000          -2.548841          -69.35748
    128       2.00000          -2.548841          -69.35748
    129       2.00000          -1.216737          -33.10911
    130       2.00000          -1.212164          -32.98466
    131       2.00000          -1.210146          -32.92976
    132       2.00000          -1.205502          -32.80338
    133       2.00000          -1.205037          -32.79073
    134       2.00000          -1.205037          -32.79073
    135       2.00000          -1.202802          -32.72990
    136       2.00000          -1.202802          -32.72990
    137       2.00000          -1.200857          -32.67699
    138       2.00000          -1.200716          -32.67315
    139       2.00000          -1.198130          -32.60279
    140       2.00000          -1.196783          -32.56613
    141       2.00000          -1.196637          -32.56215
    142       2.00000          -1.196637          -32.56215
    143       2.00000          -1.193079          -32.46534
    144       2.00000          -1.193078          -32.46529
    145       2.00000          -1.192900          -32.46045
    146       2.00000          -1.192413          -32.44721
    147       2.00000          -1.191250          -32.41556
    148       2.00000          -1.191250          -32.41556
    149       2.00000          -1.189342          -32.36365
    150       2.00000          -1.189342          -32.36365
    151       2.00000          -1.188928          -32.35239
    152       2.00000          -1.188810          -32.34916
    153       2.00000          -1.188611          -32.34376
    154       2.00000          -1.187492          -32.31330
    155       2.00000          -1.186737          -32.29277
    156       2.00000          -1.186245          -32.27937
    157       2.00000          -1.185013          -32.24585
    158       2.00000          -1.185013          -32.24585
    159       2.00000          -1.183734          -32.21103
    160       2.00000          -1.183493          -32.20448
    161       2.00000          -1.183493          -32.20448
    162       2.00000          -1.182862          -32.18730
    163       2.00000          -1.182701          -32.18293
    164       2.00000          -1.182604          -32.18030
    165       2.00000          -1.182604          -32.18030
    166       2.00000          -1.182010          -32.16412
    167       2.00000          -1.177811          -32.04988
    168       2.00000          -1.177048          -32.02911
    169       2.00000          -1.173938          -31.94448
    170       2.00000          -1.173473          -31.93183
    171       2.00000          -1.173473          -31.93183
    172       2.00000          -1.172471          -31.90455
    173       2.00000          -1.171747          -31.88485
    174       2.00000          -1.171747          -31.88485
    175       2.00000          -1.169399          -31.82097
    176       2.00000          -1.167508          -31.76951
    177       2.00000          -0.625949          -17.03293
    178       2.00000          -0.625586          -17.02307
    179       2.00000          -0.612257          -16.66037
    180       2.00000          -0.612257          -16.66037
    181       2.00000          -0.606186          -16.49515
    182       2.00000          -0.606186          -16.49515
    183       2.00000          -0.592161          -16.11351
    184       2.00000          -0.591418          -16.09330
    185       2.00000          -0.585991          -15.94563
    186       2.00000          -0.584550          -15.90642
    187       2.00000          -0.583264          -15.87141
    188       2.00000          -0.583264          -15.87141
    189       2.00000          -0.576552          -15.68879
    190       2.00000          -0.567458          -15.44133
    191       2.00000          -0.567458          -15.44133
    192       2.00000          -0.565673          -15.39274
    193       2.00000          -0.564278          -15.35479
    194       2.00000          -0.563734          -15.33997
    195       2.00000          -0.563734          -15.33997
    196       2.00000          -0.560391          -15.24902
    197       2.00000          -0.559315          -15.21974
    198       2.00000          -0.559315          -15.21974
    199       2.00000          -0.558915          -15.20884
    200       2.00000          -0.558903          -15.20852
    201       2.00000          -0.551041          -14.99458
    202       2.00000          -0.548727          -14.93163
    203       2.00000          -0.543589          -14.79182
    204       2.00000          -0.541442          -14.73339
    205       2.00000          -0.541442          -14.73339
    206       2.00000          -0.538746          -14.66003
    207       2.00000          -0.538746          -14.66003
    208       2.00000          -0.538619          -14.65658
    209       2.00000          -0.533694          -14.52256
    210       2.00000          -0.532491          -14.48982
    211       2.00000          -0.531498          -14.46279
    212       2.00000          -0.530648          -14.43966
    213       2.00000          -0.530648          -14.43966
    214       2.00000          -0.529820          -14.41713
    215       2.00000          -0.529820          -14.41713
    216       2.00000          -0.527178          -14.34523
    217       2.00000          -0.526181          -14.31811
    218       2.00000          -0.525599          -14.30228
    219       2.00000          -0.525599          -14.30228
    220       2.00000          -0.520665          -14.16801
    221       2.00000          -0.519703          -14.14184
    222       2.00000          -0.517160          -14.07264
    223       2.00000          -0.517160          -14.07264
    224       2.00000          -0.515619          -14.03071
    225       2.00000          -0.515619          -14.03071
    226       2.00000          -0.514907          -14.01133
    227       2.00000          -0.514764          -14.00744
    228       2.00000          -0.512814          -13.95439
    229       2.00000          -0.511554          -13.92008
    230       2.00000          -0.511554          -13.92008
    231       2.00000          -0.511134          -13.90868
    232       2.00000          -0.511134          -13.90868
    233       2.00000          -0.510511          -13.89172
    234       2.00000          -0.510511          -13.89172
    235       2.00000          -0.509596          -13.86683
    236       2.00000          -0.506289          -13.77683
    237       2.00000          -0.504430          -13.72625
    238       2.00000          -0.504399          -13.72540
    239       2.00000          -0.503619          -13.70417
    240       2.00000          -0.503277          -13.69487
    241       2.00000          -0.502147          -13.66412
    242       2.00000          -0.497420          -13.53550
    243       2.00000          -0.496861          -13.52028
    244       2.00000          -0.496591          -13.51292
    245       2.00000          -0.496591          -13.51292
    246       2.00000          -0.493947          -13.44097
    247       2.00000          -0.493947          -13.44097
    248       2.00000          -0.492822          -13.41036
    249       2.00000          -0.492255          -13.39494
    250       2.00000          -0.491154          -13.36499
    251       2.00000          -0.491154          -13.36499
    252       2.00000          -0.488558          -13.29434
    253       2.00000          -0.487989          -13.27885
    254       2.00000          -0.487746          -13.27224
    255       2.00000          -0.487746          -13.27224
    256       2.00000          -0.485925          -13.22268
    257       2.00000          -0.485925          -13.22268
    258       2.00000          -0.485349          -13.20702
    259       2.00000          -0.483427          -13.15473
    260       2.00000          -0.483427          -13.15473
    261       2.00000          -0.482103          -13.11870
    262       2.00000          -0.481468          -13.10140
    263       2.00000          -0.481432          -13.10044
    264       2.00000          -0.481432          -13.10044
[...]
  |   Hirshfeld dipole vector :     -0.00000000      -0.00000000       0.04271277
  |   Hirshfeld dipole moment :      0.04271277
  |   Hirshfeld second moments:      0.07079728      -0.00000000      -0.00000000
  |                                 -0.00000000       0.02419637      -0.00000000
  |                                 -0.00000000      -0.00000000       0.03005815
  ----------------------------------------------------------------------
  | Atom    58: F
  |   Hirshfeld charge        :     -0.21951200
  |   Free atom volume        :     19.22775708
  |   Hirshfeld volume        :     17.52173261
  |   Hirshfeld dipole vector :     -0.00000000      -0.00000000       0.04271276
  |   Hirshfeld dipole moment :      0.04271276
  |   Hirshfeld second moments:      0.02419637       0.00000000      -0.00000000
  |                                  0.00000000       0.07079728      -0.00000000
  |                                 -0.00000000      -0.00000000       0.03005815
  ----------------------------------------------------------------------
  | Atom    59: F
  |   Hirshfeld charge        :     -0.21951199
  |   Free atom volume        :     19.22775708
  |   Hirshfeld volume        :     17.52173262
  |   Hirshfeld dipole vector :      0.00000000       0.00000000      -0.04271277
  |   Hirshfeld dipole moment :      0.04271277
  |   Hirshfeld second moments:      0.07079728      -0.00000000       0.00000000
  |                                 -0.00000000       0.02419637      -0.00000000
  |                                  0.00000000      -0.00000000       0.03005815
  ----------------------------------------------------------------------
  | Atom    60: F
  |   Hirshfeld charge        :     -0.21951200
  |   Free atom volume        :     19.22775708
  |   Hirshfeld volume        :     17.52173261
  |   Hirshfeld dipole vector :      0.00000000       0.00000000      -0.04271276
  |   Hirshfeld dipole moment :      0.04271276
  |   Hirshfeld second moments:      0.02419637      -0.00000000      -0.00000000
  |                                 -0.00000000       0.07079728       0.00000000
  |                                 -0.00000000       0.00000000       0.03005815
  ----------------------------------------------------------------------
  | Atom    61: F
  |   Hirshfeld charge        :     -0.20975358
  |   Free atom volume        :     19.22775708
  |   Hirshfeld volume        :     17.46418821
  |   Hirshfeld dipole vector :     -0.00000000      -0.00000000      -0.00052012
  |   Hirshfeld dipole moment :      0.00052012
  |   Hirshfeld second moments:      0.02508181       0.00000000       0.00000000
  |                                  0.00000000       0.02508181       0.00000000
  |                                  0.00000000       0.00000000       0.08185631
  ----------------------------------------------------------------------
  | Atom    62: F
  |   Hirshfeld charge        :     -0.20975358
  |   Free atom volume        :     19.22775708
  |   Hirshfeld volume        :     17.46418821
  |   Hirshfeld dipole vector :      0.00000000       0.00000000       0.00052012
  |   Hirshfeld dipole moment :      0.00052012
  |   Hirshfeld second moments:      0.02508181       0.00000000      -0.00000000
  |                                  0.00000000       0.02508181       0.00000000
  |                                 -0.00000000       0.00000000       0.08185631
  ----------------------------------------------------------------------
  | Atom    63: F
  |   Hirshfeld charge        :     -0.23274782
  |   Free atom volume        :     19.22775708
  |   Hirshfeld volume        :     17.53610353
  |   Hirshfeld dipole vector :     -0.00000000      -0.00000000      -0.00101207
  |   Hirshfeld dipole moment :      0.00101207
  |   Hirshfeld second moments:      0.02353820       0.00000000       0.00000000
  |                                  0.00000000       0.02353820      -0.00000000
  |                                  0.00000000      -0.00000000       0.07327910
  ----------------------------------------------------------------------
  | Atom    64: F
  |   Hirshfeld charge        :     -0.23274782
  |   Free atom volume        :     19.22775708
  |   Hirshfeld volume        :     17.53610353
  |   Hirshfeld dipole vector :      0.00000000       0.00000000       0.00101207
  |   Hirshfeld dipole moment :      0.00101207
  |   Hirshfeld second moments:      0.02353820       0.00000000       0.00000000
  |                                  0.00000000       0.02353820       0.00000000
  |                                  0.00000000       0.00000000       0.07327910
  ----------------------------------------------------------------------


  ------------------------------------------------------------
                      Starting Cube Output
  ------------------------------------------------------------

  The following cube files will be created:

  --------------------------------------
    Cube file:            1
    cube origin       5.3801      5.3801      3.7859
    cube edge 100      0.1076      0.0000      0.0000
    cube edge 100      0.0000      0.1076      0.0000
    cube edge 100      0.0000      0.0000      0.0757
    cube filename: cube_001_total_density.cube
  --------------------------------------

  * WARNING: The output  of  the cube file is in 1/Ang^3  or
  * WARNING: 1/Ang^3/2,  but  the cube voxel  definition  is
  * WARNING: in atomic units. Be careful when postprocessing
  * WARNING: Consistent units can be chosen in control.in by
  *               cube_content_unit  bohr

  Evaluating density matrix
 
   Starting cube            1
   Cube will be divided in
     100 minicubes along the first,
     100 minicubes along the second, and
     100 minicubes along the third cube edge
   Dividing grid points on processors
   Cube file 1 finished.

  Cube output                                             :  max(cpu_time)    wall_clock(cpu1)
  | Total time for cube output                            :         15.950              15.991
------------------------------------------------------------
  Post-scf processing of Kohn-Sham eigenvalues on a denser k-point grid.
  | Using dos_kgrid_factors to calculate post-scf total density of states.
  | Electron chemical potential:    -5.440472025883 eV.
  Integrating Hamiltonian matrix: batch-based integration.
  Time summed over all CPUs for integration: real work       10.716 s, elapsed       10.970 s
  Processing batch of k-points:     1     1     1
  Starting LAPACK eigensolver
  Finished Cholesky decomposition
  | Time :     0.005 s
  Finished transformation to standard eigenproblem
  | Time :     0.009 s
  Finished solving standard eigenproblem
  | Time :     0.038 s
  Finished back-transformation of eigenvectors
  | Time :     0.005 s
  Processing batch of k-points:     1     1     2
  Processing batch of k-points:     1     1     3
  Processing batch of k-points:     1     2     1
  Processing batch of k-points:     1     2     2
  Processing batch of k-points:     1     2     3
  Processing batch of k-points:     1     3     1
  Processing batch of k-points:     1     3     2
  Processing batch of k-points:     1     3     3
  Processing batch of k-points:     1     4     1
  Processing batch of k-points:     1     4     2
  Processing batch of k-points:     1     4     3
  Processing batch of k-points:     2     1     1
  Processing batch of k-points:     2     1     2
  Processing batch of k-points:     2     1     3
  Processing batch of k-points:     2     2     1
  Processing batch of k-points:     2     2     2
  Processing batch of k-points:     2     2     3
  Processing batch of k-points:     2     3     1
  Processing batch of k-points:     2     3     2
  Processing batch of k-points:     2     3     3
  Processing batch of k-points:     2     4     1
  Processing batch of k-points:     2     4     2
  Processing batch of k-points:     2     4     3
  Processing batch of k-points:     3     1     1
  Processing batch of k-points:     3     1     2
  Processing batch of k-points:     3     1     3
  Processing batch of k-points:     3     2     1
  Processing batch of k-points:     3     2     2
  Processing batch of k-points:     3     2     3
  Processing batch of k-points:     3     3     1
  Processing batch of k-points:     3     3     2
  Processing batch of k-points:     3     3     3
  Processing batch of k-points:     3     4     1
  Processing batch of k-points:     3     4     2
  Processing batch of k-points:     3     4     3
  Processing batch of k-points:     4     1     1
  Processing batch of k-points:     4     1     2
  Processing batch of k-points:     4     1     3
  Processing batch of k-points:     4     2     1
  Processing batch of k-points:     4     2     2
  Processing batch of k-points:     4     2     3
  Processing batch of k-points:     4     3     1
  Processing batch of k-points:     4     3     2
  Processing batch of k-points:     4     3     3
  Processing batch of k-points:     4     4     1
  Processing batch of k-points:     4     4     2
  Processing batch of k-points:     4     4     3
  | writing perturbative DOS (shifted by electron chemical potential) to file KS_dos_total.dat
  | writing perturbative DOS (raw data) to file KS_dos_total_raw.dat

  Perturbative DOS                                        :  max(cpu_time) wall_clock(cpu1)
  | Total Time                                            :        111.942          112.201
  ------------------------------------------------------------

  -------------------------------------------------------------------
  Writing the requested band structure output (LAPACK version):
  -------------------------------------------------------------------

  Integrating Hamiltonian matrix: batch-based integration.
  Time summed over all CPUs for integration: real work       10.715 s, elapsed       10.994 s

  Treating all  100 k-points in band plot segment #   1:

  "Band gap" along reciprocal space direction number:    1
  | Lowest unoccupied state:      -3.36982585 eV
  | Highest occupied state :      -8.01411556 eV
  | Energy difference      :       4.64428971 eV


  Treating all  100 k-points in band plot segment #   2:

  "Band gap" along reciprocal space direction number:    2
  | Lowest unoccupied state:      -2.69482339 eV
  | Highest occupied state :      -8.10316330 eV
  | Energy difference      :       5.40833991 eV


  Treating all  100 k-points in band plot segment #   3:

  "Band gap" along reciprocal space direction number:    3
  | Lowest unoccupied state:      -3.36982585 eV
  | Highest occupied state :      -8.01411556 eV
  | Energy difference      :       4.64428971 eV


  Treating all  100 k-points in band plot segment #   4:

  "Band gap" along reciprocal space direction number:    4
  | Lowest unoccupied state:      -3.36982585 eV
  | Highest occupied state :      -8.01411556 eV
  | Energy difference      :       4.64428971 eV


  Treating all  100 k-points in band plot segment #   5:

  "Band gap" along reciprocal space direction number:    5
  | Lowest unoccupied state:      -2.33234625 eV
  | Highest occupied state :      -8.04181346 eV
  | Energy difference      :       5.70946722 eV


  Treating all  100 k-points in band plot segment #   6:

  "Band gap" along reciprocal space direction number:    6
  | Lowest unoccupied state:      -1.83683277 eV
  | Highest occupied state :      -8.11668337 eV
  | Energy difference      :       6.27985060 eV


  Treating all  100 k-points in band plot segment #   7:

  "Band gap" along reciprocal space direction number:    7
  | Lowest unoccupied state:      -2.33234625 eV
  | Highest occupied state :      -8.04181346 eV
  | Energy difference      :       5.70946722 eV


  Treating all  100 k-points in band plot segment #   8:

  "Band gap" along reciprocal space direction number:    8
  | Lowest unoccupied state:      -2.69482339 eV
  | Highest occupied state :      -8.10316330 eV
  | Energy difference      :       5.40833991 eV


  Treating all  100 k-points in band plot segment #   9:

  "Band gap" along reciprocal space direction number:    9
  | Lowest unoccupied state:      -2.20632652 eV
  | Highest occupied state :      -8.12775696 eV
  | Energy difference      :       5.92143044 eV

  "Band gap" of total set of bands:
  | Lowest unoccupied state:      -3.36982585 eV
  | Highest occupied state :      -8.01411556 eV
  | Energy difference      :       4.64428971 eV



  Band Structure                                          :  max(cpu_time) wall_clock(cpu1)
  | Total Time                                            :          2.763            2.789
------------------------------------------------------------

------------------------------------------------------------------------------
  Final output of selected total energy values:

  The following output summarizes some interesting total energy values
  at the end of a run (AFTER all relaxation, molecular dynamics, etc.).

  | Total energy of the DFT / Hartree-Fock s.c.f. calculation      :        -236399.220803096 eV
  | Final zero-broadening corrected energy (caution - metals only) :        -236399.220803096 eV
  | For reference only, the value of 1 Hartree used in FHI-aims is :             27.211384500 eV
  | For reference only, the overall average (free atom contribution
  | + realspace contribution) of the electrostatic potential after
  | s.c.f. convergence is                                          :             -8.971975026 eV

  Before relying on these values, please be sure to understand exactly which
  total energy value is referred to by a given number. Different objects may
  all carry the same name 'total energy'. Definitions:

  Total energy of the DFT / Hartree-Fock s.c.f. calculation:
  | Note that this energy does not include ANY quantities calculated after the
  | s.c.f. cycle, in particular not ANY RPA, MP2, etc. many-body perturbation terms.

  Final zero-broadening corrected energy:
  | For metallic systems only, a broadening of the occupation numbers at the Fermi
  | level can be extrapolated back to zero broadening by an electron-gas inspired
  | formula. For all systems that are not real metals, this value can be
  | meaningless and should be avoided.

------------------------------------------------------------------------------
  Methods described in the following list of references were used in this FHI-aims run.
  If you publish the results, please make sure to cite these reference if they apply.
  FHI-aims is an academic code, and for our developers (often, Ph.D. students
  and postdocs), scientific credit in the community is essential.
  Thank you for helping us!

  For any use of FHI-aims, please cite:

    Volker Blum, Ralf Gehrke, Felix Hanke, Paula Havu, Ville Havu,
    Xinguo Ren, Karsten Reuter, and Matthias Scheffler
    'Ab initio molecular simulations with numeric atom-centered orbitals'
    Computer Physics Communications 180, 2175-2196 (2009)
    http://doi.org/10.1016/j.cpc.2009.06.022


  The provided symmetry information was generated with SPGlib:

    Atsushi Togo, Yusuke Seto, Dimitar Pashov
    SPGlib 1.7.3 obtained from http://spglib.sourceforge.net
    Copyright (C) 2008 Atsushi Togo


  The ELSI infrastructure was used in your run to solve the Kohn-Sham electronic structure.
  Please check out http://elsi-interchange.org to learn more.
  If scalability is important for your project, please acknowledge ELSI by citing:

    V. W-z. Yu, F. Corsetti, A. Garcia, W. P. Huhn, M. Jacquelin, W. Jia,
    B. Lange, L. Lin, J. Lu, W. Mi, A. Seifitokaldani, A. Vazquez-Mayagoitia,
    C. Yang, H. Yang, and V. Blum
    'ELSI: A unified software interface for Kohn-Sham electronic structure solvers'
    Computer Physics Communications 222, 267-285 (2018).
    http://doi.org/10.1016/j.cpc.2017.09.007


  For the real-space grid partitioning and parallelization used in this calculation, please cite:

    Ville Havu, Volker Blum, Paula Havu, and Matthias Scheffler,
    'Efficient O(N) integration for all-electron electronic structure calculation'
    'using numerically tabulated basis functions'
    Journal of Computational Physics 228, 8367-8379 (2009).
    http://doi.org/10.1016/j.jcp.2009.08.008

  Of course, there are many other important community references, e.g., those cited in the
  above references. Our list is limited to references that describe implementations in the
  FHI-aims code. The reason is purely practical (length of this list) - please credit others as well.

 * A warning was issued further up regarding the accuracy of onsite integrals.
   An integral with a negative eigenvalue was among the flagged integrals.
   In most standard situations, this warning is probably harmless.
   If needed, this can be verified by adjusting the radial_multiplier flag.

 * A warning regarding the cube file format (cube_content_unit legacy)
 * was issued above. The output is Angstrom-based but the cube voxel
 * definition is in atomic units. Please check carefully.

------------------------------------------------------------
          Leaving FHI-aims.
          Date     :  20230624, Time     :  234230.453

          Computational steps:
          | Number of self-consistency cycles          :           20
          | Number of SCF (re)initializations          :            1

          Detailed time accounting                     :  max(cpu_time)    wall_clock(cpu1)
          | Total time                                  :      241.247 s         242.058 s
          | Preparation time                            :        0.139 s           0.140 s
          | Boundary condition initalization            :        0.349 s           0.349 s
          | Grid partitioning                           :        0.201 s           0.201 s
          | Preloading free-atom quantities on grid     :        0.713 s           0.715 s
          | Free-atom superposition energy              :        0.140 s           0.140 s
          | Total time for integrations                 :        6.050 s           6.059 s
          | Total time for solution of K.-S. equations  :        4.313 s           4.320 s
          | Total time for density update               :        7.322 s           7.338 s
          | Total time for mixing & preconditioning     :       18.398 s          18.388 s
          | Total time for Hartree multipole update     :        0.087 s           0.089 s
          | Total time for Hartree multipole sum        :       24.068 s          24.121 s
          | Total time for total energy evaluation      :        0.020 s           0.017 s
          | Total time for scaled ZORA corrections      :        0.000 s           0.000 s
          | Total time for matrix I/O                   :        0.071 s           0.077 s
          | Total time for band structures, DOS         :      114.705 s         114.990 s
          | Total time for Mulliken analysis            :       47.663 s          47.765 s
          | Total time for cube output                  :       15.950 s          15.991 s

          Partial memory accounting:
          | Residual value for overall tracked memory usage across tasks:     0.000000 MB (should be 0.000000 MB)
          | Peak values for overall tracked memory usage:
          |   Minimum:       16.838 MB (on task  0 after allocating eval_tmp)
          |   Maximum:       19.088 MB (on task  1 after allocating eval_tmp)
          |   Average:       17.288 MB
          | Largest tracked array allocation:
          |   Minimum:        4.500 MB (KS_eigenvector_complex on task  0)
          |   Maximum:        6.750 MB (KS_eigenvector_complex on task  1)
          |   Average:        4.950 MB
          Note:  These values currently only include a subset of arrays which are explicitly tracked.
          The "true" memory usage will be greater.

          Have a nice day.

