  MPI-parallelism will be employed.
------------------------------------------------------------
          Invoking FHI-aims ...
          Version 071914_7
          Compiled on 2016/06/08 at 11:32:45 on host eos02.

          When using FHI-aims, please cite the following reference:

          Volker Blum, Ralf Gehrke, Felix Hanke, Paula Havu,
          Ville Havu, Xinguo Ren, Karsten Reuter, and Matthias Scheffler,
          'Ab Initio Molecular Simulations with Numeric Atom-Centered Orbitals: FHI-aims',
          Computer Physics Communications 180, 2175-2196 (2009)

          For any questions about FHI-aims, please visit the aimsclub website
          with its forums and wiki. Contributions to both the forums and the
          wiki are warmly encouraged - they are for you, and everyone is welcome there.

------------------------------------------------------------

  Date     :  20160710, Time     :  144325.957
  Time zero on CPU 1             :   0.696042000000000E+00  s.
  Internal wall clock time zero  :           237393805.957  s.

  Using       64 parallel tasks.
  Task        0 on host eos126 reporting.
  Task        1 on host eos126 reporting.
  Task        2 on host eos126 reporting.
  Task        3 on host eos126 reporting.
  Task        4 on host eos126 reporting.
  Task        5 on host eos126 reporting.
  Task        6 on host eos126 reporting.
  Task        7 on host eos126 reporting.
  Task        8 on host eos126 reporting.
  Task        9 on host eos126 reporting.
  Task       10 on host eos126 reporting.
  Task       11 on host eos126 reporting.
  Task       12 on host eos126 reporting.
  Task       13 on host eos126 reporting.
  Task       14 on host eos126 reporting.
  Task       15 on host eos126 reporting.
  Task       16 on host eos126 reporting.
  Task       17 on host eos126 reporting.
  Task       18 on host eos126 reporting.
  Task       19 on host eos126 reporting.
  Task       20 on host eos126 reporting.
  Task       21 on host eos126 reporting.
  Task       22 on host eos126 reporting.
  Task       23 on host eos126 reporting.
  Task       24 on host eos126 reporting.
  Task       25 on host eos126 reporting.
  Task       26 on host eos126 reporting.
  Task       27 on host eos126 reporting.
  Task       28 on host eos126 reporting.
  Task       29 on host eos126 reporting.
  Task       30 on host eos126 reporting.
  Task       31 on host eos126 reporting.
  Task       32 on host eos206 reporting.
  Task       33 on host eos206 reporting.
  Task       34 on host eos206 reporting.
  Task       35 on host eos206 reporting.
  Task       36 on host eos206 reporting.
  Task       37 on host eos206 reporting.
  Task       38 on host eos206 reporting.
  Task       39 on host eos206 reporting.
  Task       40 on host eos206 reporting.
  Task       41 on host eos206 reporting.
  Task       42 on host eos206 reporting.
  Task       43 on host eos206 reporting.
  Task       44 on host eos206 reporting.
  Task       45 on host eos206 reporting.
  Task       46 on host eos206 reporting.
  Task       47 on host eos206 reporting.
  Task       48 on host eos206 reporting.
  Task       49 on host eos206 reporting.
  Task       50 on host eos206 reporting.
  Task       51 on host eos206 reporting.
  Task       52 on host eos206 reporting.
  Task       53 on host eos206 reporting.
  Task       54 on host eos206 reporting.
  Task       55 on host eos206 reporting.
  Task       56 on host eos206 reporting.
  Task       57 on host eos206 reporting.
  Task       58 on host eos206 reporting.
  Task       59 on host eos206 reporting.
  Task       60 on host eos206 reporting.
  Task       61 on host eos206 reporting.
  Task       62 on host eos206 reporting.
  Task       63 on host eos206 reporting.

  Performing system and environment tests:
  | Environment variable OMP_NUM_THREADS correctly set to 1.
  | Stacksize not measured: no C compiler
  | Checking for scalapack...
  | Testing pdtran()...
  | All pdtran() tests passed.

  Obtaining array dimensions for all initial allocations:
  
  -----------------------------------------------------------------------
  Parsing control.in (first pass over file, find array dimensions only).
  The contents of control.in will be repeated verbatim below
  unless switched off by setting 'verbatim_writeout .false.' .
  in the first line of control.in .
  -----------------------------------------------------------------------
  
  #=====================================================
  #FHI-aims file: /eos/scratch/biebj/binaries/binaries_unrelaxed/pbe/tight/minimal/atomic_zora/8/73_Ta/control.in
  #Created using the Atomic Simulation Environment (ASE)
  #
  #List of parameters used to initialize the calculator:
  #=====================================================
  charge_mix_param                   0.01
  sc_iter_limit                      8000
  relativistic                       atomic_zora scalar
  compute_analytical_stress          .true.
  sc_accuracy_rho                    1e-05
  charge                             0.0
  dos_kgrid_factors                  3 3 3
  xc                                 pbe
  override_relativity                .true.
  k_grid                             12 12 12
  preconditioner                     kerker 1.5
  n_max_pulay                        10
  occupation_type                    fermi 0.1
  spin                               none
  compute_forces                     .true.
  override_illconditioning           .true.
  mixer                              pulay
  sc_accuracy_etot                   1e-05
  sc_accuracy_eev                    1e-05
  sc_accuracy_forces                 0.0001
  output                             atom_proj_dos -20 10 1000 0.01
  output                             dos -20 10 1000 0.01
  output                             quadrupole
  output                             hirshfeld
  output                             band 0.0 0.0 0.0 0.5 0.0 0.5 20 \Gamma X
  output                             band 0.5 0.0 0.5 0.5 0.25 0.75 20 X W
  output                             band 0.5 0.25 0.75 0.375 0.375 0.75 20 W K
  output                             band 0.375 0.375 0.75 0.0 0.0 0.0 20 K \Gamma
  output                             band 0.0 0.0 0.0 0.5 0.5 0.5 20 \Gamma L
  output                             band 0.5 0.5 0.5 0.625 0.25 0.625 20 L U
  output                             band 0.625 0.25 0.625 0.5 0.25 0.75 20 U W
  output                             band 0.5 0.25 0.75 0.5 0.5 0.5 20 W L
  output                             band 0.5 0.5 0.5 0.375 0.375 0.75 20 L K
  output                             band 0.625 0.25 0.625 0.5 0.0 0.5 20 U X
  #=======================================================
  
  ################################################################################
  #
  #  FHI-aims code project
  # Volker Blum, Fritz Haber Institute Berlin, 2009
  #
  #  Suggested "tight" defaults for C atom (to be pasted into control.in file)
  #
  ################################################################################
    species        C
  #     global species definitions
      nucleus             6
      mass                12.0107
  #
      l_hartree           6
  #
      cut_pot             4.0  2.0  1.0
      basis_dep_cutoff    1e-4
  #
      radial_base         34 7.0
      radial_multiplier   2
      angular_grids specified
        division   0.2187   50
        division   0.4416  110
        division   0.6335  194
        division   0.7727  302
        division   0.8772  434
  #      division   0.9334  590
  #      division   0.9924  770
  #      division   1.0230  974
  #      division   1.5020 1202
  #     outer_grid  974
        outer_grid  434
  ################################################################################
  #
  #  Definition of "minimal" basis
  #
  ################################################################################
  #     valence basis states
      valence      2  s   2.
      valence      2  p   2.
  #     ion occupancy
      ion_occ      2  s   1.
      ion_occ      2  p   1.
  ################################################################################
  #
  #  Suggested additional basis functions. For production calculations,
  #  uncomment them one after another (the most important basis functions are
  #  listed first).
  #
  #  Constructed for dimers: 1.0 A, 1.25 A, 1.5 A, 2.0 A, 3.0 A
  #
  ################################################################################
  #  "First tier" - improvements: -1214.57 meV to -155.61 meV
  #     hydro 2 p 1.7
  #     hydro 3 d 6
  #     hydro 2 s 4.9
  #  "Second tier" - improvements: -67.75 meV to -5.23 meV
  #     hydro 4 f 9.8
  #     hydro 3 p 5.2
  #     hydro 3 s 4.3
  #     hydro 5 g 14.4
  #     hydro 3 d 6.2
  #  "Third tier" - improvements: -2.43 meV to -0.60 meV
  #     hydro 2 p 5.6
  #     hydro 2 s 1.4
  #     hydro 3 d 4.9
  #     hydro 4 f 11.2
  #  "Fourth tier" - improvements: -0.39 meV to -0.18 meV
  #     hydro 2 p 2.1
  #     hydro 5 g 16.4
  #     hydro 4 d 13.2
  #     hydro 3 s 13.6
  #     hydro 4 f 17.6
  #  Further basis functions - improvements: -0.08 meV and below
  #     hydro 3 s 2
  #     hydro 3 p 6
  #     hydro 4 d 20
  ################################################################################
  #
  # For methods that use the localized form of the "resolution of identity" for
  # the two-electron Coulomb operator (RI_method LVL), particularly Hartree-Fock and
  # hybrid density functional calculations, the highest accuracy can be obtained by
  # uncommenting the line beginning with "for_aux"  below, thus adding an extra g radial
  # function to the construction of the product basis set for the expansion.
  # See Ref. New J. Phys. 17, 093020 (2015) for more information, particularly Figs. 1 and 6.
  #
  ################################################################################
  #
  # for_aux hydro 5 g 6.0
  ################################################################################
  #
  #  FHI-aims code project
  # Volker Blum, Fritz Haber Institute Berlin, 2009
  #
  #  Suggested "tight" defaults for Ta atom (to be pasted into control.in file)
  #
  ################################################################################
    species          Ta
  #     global species definitions
      nucleus        73
      mass           180.94788
  #
      l_hartree      6
  #
      cut_pot        4.0  2.0  1.0
      basis_dep_cutoff    1e-4
  #
      radial_base    71  7.0
      radial_multiplier  2
      angular_grids specified
        division   0.2960   50
        division   0.7533  110
        division   1.1144  194
        division   1.3207  302
        division   1.5443  434
  #      division   1.8111  590
  #      division   2.0726  770
  #      division   2.1374  974
  #      division   2.9879 1202
  #      outer_grid  974
        outer_grid  434
  ################################################################################
  #
  #  Definition of "minimal" basis
  #
  ################################################################################
  #     valence basis states
      valence      6  s   2.
      valence      5  p   6.
      valence      5  d   3.
      valence      4  f  14.
  #     ion occupancy
      ion_occ      6  s   1.
      ion_occ      5  p   6.
      ion_occ      5  d   2.
      ion_occ      4  f  14.
  ################################################################################
  #
  #  Suggested additional basis functions. For production calculations,
  #  uncomment them one after another (the most important basis functions are
  #  listed first).
  #
  #  Constructed for dimers: 1.85, 2.12, 2.625, 3.25, 4.50 AA
  #
  ################################################################################
  #
  #  "First tier" - improvements: -461.64 meV to -31.84 meV
  #     hydro 4 f 7
  #     hydro 4 d 5.6
  #     ionic 6 p auto
  #     hydro 5 g 11.6
  #     ionic 6 s auto
  #  "Second tier" - improvements: -26.62 meV to -1.73 meV
  #     ionic 5 d auto
  #     hydro 6 h 15.2
  #     hydro 4 f 9.2
  #     hydro 5 g 17.6
  #     hydro 4 p 4.7
  #     hydro 1 s 0.5
  #  "Third tier" - max. impr. -6.67 meV, min. impr. -0.18 meV
  #     hydro 5 d 8
  #     hydro 6 h 20
  #     hydro 5 g 38
  #     hydro 5 f 8.4
  #     hydro 2 p 1.3
  #     hydro 5 s 9.4
  #  "Fourth tier" - max. impr. -0.76 meV, min. impr. -0.13 meV
  #     hydro 5 g 10.8
  #     hydro 6 p 14.8
  #     hydro 6 h 20.4
  #     hydro 5 f 21.2
  #     hydro 4 p 11.6
  #     hydro 4 f 3.9
  #     hydro 6 d 13.6
  #     hydro 4 s 4.6
  
  -----------------------------------------------------------------------
  Completed first pass over input file control.in .
  -----------------------------------------------------------------------
  
  
  -----------------------------------------------------------------------
  Parsing geometry.in (first pass over file, find array dimensions only).
  The contents of geometry.in will be repeated verbatim below
  unless switched off by setting 'verbatim_writeout .false.' .
  in the first line of geometry.in .
  -----------------------------------------------------------------------
  
  #=======================================================
  #FHI-aims file: /eos/scratch/biebj/binaries/binaries_unrelaxed/pbe/tight/minimal/atomic_zora/8/73_Ta/geometry.in
  #Created using the Atomic Simulation Environment (ASE)
  #=======================================================
  lattice_vector 4.4530000000000003 0.0000000000000000 0.0000000000000000
  lattice_vector 0.0000000000000003 4.4530000000000003 0.0000000000000000
  lattice_vector 0.0000000000000003 0.0000000000000003 4.4530000000000003
  atom 2.2265000000000001 2.2265000000000001 2.2265000000000001 C
  atom 2.2265000000000001 0.0000000000000000 0.0000000000000000 C
  atom 0.0000000000000001 2.2265000000000001 0.0000000000000000 C
  atom 0.0000000000000001 0.0000000000000001 2.2265000000000001 C
  atom 0.0000000000000000 0.0000000000000000 0.0000000000000000 Ta
  atom 0.0000000000000003 2.2265000000000001 2.2265000000000001 Ta
  atom 2.2265000000000001 0.0000000000000001 2.2265000000000001 Ta
  atom 2.2265000000000001 2.2265000000000001 0.0000000000000000 Ta
  
  -----------------------------------------------------------------------
  Completed first pass over input file geometry.in .
  -----------------------------------------------------------------------
  

  Basic array size parameters:
  | Number of species                 :        2
  | Number of atoms                   :        8
  | Number of lattice vectors         :        3
  | Max. basis fn. angular momentum   :        3
  | Max. atomic/ionic basis occupied n:        6
  | Max. number of basis fn. types    :        1
  | Max. radial fns per species/type  :       14
  | Max. logarithmic grid size        :     1482
  | Max. radial integration grid size :      143
  | Max. angular integration grid size:      434
  | Max. angular grid division number :        8
  | Radial grid for Hartree potential :     1482
  | Number of spin channels           :        1

------------------------------------------------------------
          Reading file control.in.
------------------------------------------------------------
  Charge density mixing - mixing parameter:     0.0100
  Maximum number of s.-c. iterations  :  8000
  Scalar relativistic treatment of kinetic energy: on-site free-atom approximation to ZORA.
  Convergence accuracy of self-consistent charge density: 0.1000E-04
  Charge =   0.000000E+00: Neutral system requested explicitly.
  Found k-point grid multipliers for perturbative DOS :         3         3         3
  XC: Using PBE gradient-corrected functionals.
  override_relativity: Explicitly overriding any built-in relativity checks.
  If you use this flag, you should really know what you are doing.
  Found k-point grid:        12        12        12
  Using Kerker preconditioning with damping at q_0 =     0.1500E+01
  Pulay mixing - number of memorized iterations:   10
  Occupation type: Fermi broadening, width =   0.100000E+00 eV.
  Spin treatment: No spin polarisation.
  Forces will be computed.
  override_illconditioning: Explicitly overriding any built-in checks for an ill-conditioned overlap matrix.
  *** WARNING: If you use this flag, you should really know what you are doing.
  *** DO NOT keep this flag set by default in all your control.in files.
  Using pulay charge density mixing.
  Convergence accuracy of total energy: 0.1000E-04
  Convergence accuracy of sum of eigenvalues: 0.1000E-04
  Convergence accuracy of forces: 0.1000E-03
  Calculating atom-projected density of states with
  | energy interval :-20.000000 10.000000
  | points & broadening :  1000  0.010000
  Calculating density of states with
  | energy interval :-20.000000 10.000000
  | points & broadening :  1000  0.010000
  quadrupole moment will be written out.
  Hirshfeld charge analysis will be performed.

  Plot band    1
  | begin  0.000000  0.000000  0.000000
  | end    0.500000  0.000000  0.500000
  | number of points:   20

  Plot band    2
  | begin  0.500000  0.000000  0.500000
  | end    0.500000  0.250000  0.750000
  | number of points:   20

  Plot band    3
  | begin  0.500000  0.250000  0.750000
  | end    0.375000  0.375000  0.750000
  | number of points:   20

  Plot band    4
  | begin  0.375000  0.375000  0.750000
  | end    0.000000  0.000000  0.000000
  | number of points:   20

  Plot band    5
  | begin  0.000000  0.000000  0.000000
  | end    0.500000  0.500000  0.500000
  | number of points:   20

  Plot band    6
  | begin  0.500000  0.500000  0.500000
  | end    0.625000  0.250000  0.625000
  | number of points:   20

  Plot band    7
  | begin  0.625000  0.250000  0.625000
  | end    0.500000  0.250000  0.750000
  | number of points:   20

  Plot band    8
  | begin  0.500000  0.250000  0.750000
  | end    0.500000  0.500000  0.500000
  | number of points:   20

  Plot band    9
  | begin  0.500000  0.500000  0.500000
  | end    0.375000  0.375000  0.750000
  | number of points:   20

  Plot band   10
  | begin  0.625000  0.250000  0.625000
  | end    0.500000  0.000000  0.500000
  | number of points:   20
 
  Reading configuration options for species C                   .
  | Found nuclear charge :   6.0000
  | Found atomic mass :    12.0107000000000      amu
  | Found l_max for Hartree potential  :   6
  | Found cutoff potl. onset [A], width [A], scale factor :    4.00000    2.00000    1.00000
  | Threshold for basis-dependent cutoff potential is   0.100000E-03
  | Found data for basic radial integration grid :    34 points, outermost radius =    7.000 A
  | Found multiplier for basic radial grid :   2
  | Found angular grid specification: user-specified.
  | Specified grid contains     6 separate shells.
  | Check grid settings after all constraints further below.
  | Found free-atom valence shell :  2 s   2.000
  | Found free-atom valence shell :  2 p   2.000
  | No ionic wave fns used. Skipping ion_occ.
  | No ionic wave fns used. Skipping ion_occ.
  Species C                   : Missing cutoff potential type.
  Defaulting to exp(1/x)/(1-x)^2 type cutoff potential.
  Species C : No 'logarithmic' tag. Using default grid for free atom:
  | Default logarithmic grid data [bohr] : 0.1000E-03 0.1000E+03 0.1012E+01
  Species C : On-site basis accuracy parameter (for Gram-Schmidt orthonormalisation) not specified.
  Using default value basis_acc =  0.1000000E-03.
  Species C                   : Using default innermost maximum threshold i_radial=  2 for radial functions.
  Species C                   : Default cutoff onset for free atom density etc. : 0.40000000E+01 AA.
  Species C                   : Basic radial grid will be enhanced according to radial_multiplier =   2, to contain    69 grid points.
 
  Reading configuration options for species Ta                  .
  | Found nuclear charge :  73.0000
  | Found atomic mass :    180.947880000000      amu
  | Found l_max for Hartree potential  :   6
  | Found cutoff potl. onset [A], width [A], scale factor :    4.00000    2.00000    1.00000
  | Threshold for basis-dependent cutoff potential is   0.100000E-03
  | Found data for basic radial integration grid :    71 points, outermost radius =    7.000 A
  | Found multiplier for basic radial grid :   2
  | Found angular grid specification: user-specified.
  | Specified grid contains     6 separate shells.
  | Check grid settings after all constraints further below.
  | Found free-atom valence shell :  6 s   2.000
  | Found free-atom valence shell :  5 p   6.000
  | Found free-atom valence shell :  5 d   3.000
  | Found free-atom valence shell :  4 f  14.000
  | No ionic wave fns used. Skipping ion_occ.
  | No ionic wave fns used. Skipping ion_occ.
  | No ionic wave fns used. Skipping ion_occ.
  | No ionic wave fns used. Skipping ion_occ.
  Species Ta                  : Missing cutoff potential type.
  Defaulting to exp(1/x)/(1-x)^2 type cutoff potential.
  Species Ta: No 'logarithmic' tag. Using default grid for free atom:
  | Default logarithmic grid data [bohr] : 0.1000E-03 0.1000E+03 0.1012E+01
  Species Ta: On-site basis accuracy parameter (for Gram-Schmidt orthonormalisation) not specified.
  Using default value basis_acc =  0.1000000E-03.
  Species Ta                  : Using default innermost maximum threshold i_radial=  2 for radial functions.
  Species Ta                  : Default cutoff onset for free atom density etc. : 0.40000000E+01 AA.
  Species Ta                  : Basic radial grid will be enhanced according to radial_multiplier =   2, to contain   143 grid points.
 
  Finished reading input file 'control.in'. Consistency checks are next.
 
  Target number of points in a grid batch is not set. Defaulting to  100
  Method for grid partitioning is not set. Defaulting to parallel hash+maxmin partitioning.
  Batch size limit is not set. Defaulting to    200
  By default, will store active basis functions for each batch.
  If in need of memory, prune_basis_once .false. can be used to disable this option.
  communication_type for Hartree potential was not specified.
  Defaulting to calc_hartree .
  Pulay mixer: Number of initial linear mixing iterations not set.
  Defaulting to    0 iterations.
  Work space size for distributed Hartree potential not set.
  Defaulting to   0.200000E+03 MB.
  Algorithm-dependent basis array size parameters:
  | n_max_pulay                         :       10
  Geometry relaxation not requested: no relaxation will be performed.
  Analytical stress will be computed.
  Analytical stress calculation: Only the upper triangle is calculated.
                                 Final output is symmetrized.
  Analytical stress calculation: scf convergence accuracy of stress not set.
                                 Analytical stress self-consistency will not be checked explicitly.
                                 Be sure to set other criteria like sc_accuracy_eev tight enough.
  Handling of forces: Unphysical translation and rotation will be removed from forces.
  No accuracy limit for integral partition fn. given. Defaulting to 0.1000E-14.
  No threshold value for u(r) in integrations given. Defaulting to 0.1000E-05.
  No accuracy for occupation numbers given. Defaulting to 0.1000E-07.
  No threshold value for occupation numbers given. Defaulting to 0.0000E+00.
  No accuracy for fermi level given. Defaulting to 0.1000E-19.
  Maximum # of iterations to find E_F not set. Defaulting to  200.
  Preferred method for the eigenvalue solver ('KS_method') not specified in 'control.in'.
  Defaulting to serial version, 'lapack_fast', since more k-points than CPUs available.
  Will not use alltoall communication since running on < 1024 CPUs.
  Threshold for basis singularities not set.
  Default threshold for basis singularities: 0.1000E-04
  partition_type (choice of integration weights) for integrals was not specified.
  | Using a version of the partition function of Stratmann and coworkers ('stratmann_smoother').
  | At each grid point, the set of atoms used to build the partition table is smoothly restricted to
  | only those atoms whose free-atom density would be non-zero at that grid point.
  Partitioning for Hartree potential was not defined. Using partition_type for integrals.
  | Adjusted default value of keyword multip_moments_threshold to:       0.10000000E-11
  | This value may affect high angular momentum components of the Hartree potential in periodic systems.
  Angular momentum expansion for Kerker preconditioner not set explicitly.
  | Using default value of   0
  No explicit requirement for turning off preconditioner.
  | By default, it will be turned off when the charge convergence reaches
  | sc_accuracy_rho  =   0.100000E-04
  | sc_accuracy_eev  =   0.100000E-04
  | sc_accuracy_etot =   0.100000E-04
  No special mixing parameter while Kerker preconditioner is on.
  Using default: charge_mix_param =     0.0100.
  No q(lm)/r^(l+1) cutoff set for long-range Hartree potential.
  | Using default value of  0.100000E-09 .
  | Verify using the multipole_threshold keyword.
  Defaulting to new monopole extrapolation.
  Density update method: automatic selection selected.
  Using density matrix based charge density update.
  Using density matrix based charge density update.
  Using packed matrix style: index .
  Defaulting to use time-reversal symmetry for k-point grid.
------------------------------------------------------------


------------------------------------------------------------
          Reading geometry description geometry.in.
------------------------------------------------------------
  Input structure read successfully.
  The structure contains        8 atoms,  and a total of        316.000 electrons.

  Input geometry:
  | Unit cell:
  |         4.453000         0.000000         0.000000
  |         0.000000         4.453000         0.000000
  |         0.000000         0.000000         4.453000
  | Atomic structure:
  |       Atom                x [A]            y [A]            z [A]
  |    1: Species C              2.226500         2.226500         2.226500
  |    2: Species C              2.226500         0.000000         0.000000
  |    3: Species C              0.000000         2.226500         0.000000
  |    4: Species C              0.000000         0.000000         2.226500
  |    5: Species Ta             0.000000         0.000000         0.000000
  |    6: Species Ta             0.000000         2.226500         2.226500
  |    7: Species Ta             2.226500         0.000000         2.226500
  |    8: Species Ta             2.226500         2.226500         0.000000
  |

  | The smallest distance between any two atoms is         2.22650000 AA.
  |
  | The first atom of this pair is atom number                      1 .
  | The second atom of this pair is atom number                     6 .
  | Wigner-Seitz cell of the first atom image           0     0     0 .
  | (The Wigner-Seitz cell of the second atom is 0 0 0  by definition.)

  Quantities derived from the lattice vectors:
  | Reciprocal lattice vector 1:  1.411001  0.000000  0.000000
  | Reciprocal lattice vector 2:  0.000000  1.411001 -0.000000
  | Reciprocal lattice vector 3:  0.000000 -0.000000  1.411001
  | Unit cell volume                               :   0.882995E+02  A^3

  Number of empty states per atom not set in control.in - providing a guess from actual geometry.
  | Total number of empty states used during s.c.f. cycle:       48
  If you use a very high smearing, use empty_states (per atom!) in control.in to increase this value.

  Structure-dependent array size parameters: 
  | Maximum number of distinct radial functions  :       17
  | Maximum number of basis functions            :      180
  | Number of Kohn-Sham states (occupied + empty):      206
------------------------------------------------------------

------------------------------------------------------------
          Preparing all fixed parts of the calculation.
------------------------------------------------------------
  Determining machine precision:
    2.225073858507201E-308
  Setting up grids for atomic and cluster calculations.

  Creating wave function, potential, and density for free atoms.

  Species: C

  List of occupied orbitals and eigenvalues:
    n    l              occ      energy [Ha]    energy [eV]
    1    0           2.0000       -10.049212      -273.4530
    2    0           2.0000        -0.504761       -13.7352
    2    1           2.0000        -0.193631        -5.2690


  Species: Ta

  List of occupied orbitals and eigenvalues:
    n    l              occ      energy [Ha]    energy [eV]
    1    0           2.0000     -2673.747138    -72756.3614
    2    0           2.0000      -431.913122    -11752.9540
    3    0           2.0000       -97.814534     -2661.6689
    4    0           2.0000       -19.866303      -540.5896
    5    0           2.0000        -2.675014       -72.7908
    6    0           2.0000        -0.196074        -5.3354
    2    1           6.0000      -377.935154    -10284.1388
    3    1           6.0000       -82.050653     -2232.7119
    4    1           6.0000       -14.724540      -400.6751
    5    1           6.0000        -1.441027       -39.2123
    3    2          10.0000       -63.736556     -1734.3599
    4    2          10.0000        -8.159591      -222.0338
    5    2           3.0000        -0.127829        -3.4784
    4    3          14.0000        -0.907215       -24.6866

  Creating fixed part of basis set: Ionic, confined, hydrogenic.

  Adding cutoff potential to free-atom effective potential.
  Creating atomic-like basis functions for current effective potential.

  Species C                   :

  List of atomic basis orbitals and eigenvalues:
    n    l      energy [Ha]    energy [eV]    outer radius [A]
    1    0       -10.049212      -273.4530       1.934409
    2    0        -0.504761       -13.7352       5.271162
    2    1        -0.193631        -5.2690       5.401630


  Species Ta                  :

  List of atomic basis orbitals and eigenvalues:
    n    l      energy [Ha]    energy [eV]    outer radius [A]
    1    0     -2673.747138    -72756.3614       0.132354
    2    0      -431.913122    -11752.9540       0.347671
    3    0       -97.814534     -2661.6689       0.732879
    4    0       -19.866303      -540.5896       1.563887
    5    0        -2.675014       -72.7908       4.008824
    6    0        -0.196074        -5.3354       5.441868
    2    1      -377.935154    -10284.1388       0.360658
    3    1       -82.050653     -2232.7119       0.788656
    4    1       -14.724540      -400.6751       1.767249
    5    1        -1.441027       -39.2123       4.815658
    3    2       -63.736556     -1734.3599       0.848678
    4    2        -8.159591      -222.0338       2.229325
    5    2        -0.127829        -3.4784       5.441868
    4    3        -0.907215       -24.6866       4.815658

  Assembling full basis from fixed parts.
  | Species C :   atomic orbital   1 s accepted.
  | Species C :   atomic orbital   2 s accepted.
  | Species C :   atomic orbital   2 p accepted.
  | Species Ta :   atomic orbital   1 s accepted.
  | Species Ta :   atomic orbital   2 s accepted.
  | Species Ta :   atomic orbital   3 s accepted.
  | Species Ta :   atomic orbital   4 s accepted.
  | Species Ta :   atomic orbital   5 s accepted.
  | Species Ta :   atomic orbital   6 s accepted.
  | Species Ta :   atomic orbital   2 p accepted.
  | Species Ta :   atomic orbital   3 p accepted.
  | Species Ta :   atomic orbital   4 p accepted.
  | Species Ta :   atomic orbital   5 p accepted.
  | Species Ta :   atomic orbital   3 d accepted.
  | Species Ta :   atomic orbital   4 d accepted.
  | Species Ta :   atomic orbital   5 d accepted.
  | Species Ta :   atomic orbital   4 f accepted.
  Reducing total number of  Kohn-Sham states to      180.
 
  Basis size parameters after reduction:
  | Total number of radial functions:       17
  | Total number of basis functions :      180
 
  Testing on-site integration grid accuracy.
  |  Species  Function  <phi|h_atom|phi> (log., in eV)  <phi|h_atom|phi> (rad., in eV)
           1        1               -273.4529725981               -273.4529710451
           1        2                -13.7352530191                -13.7352524550
           1        3                 -5.2694407727                 -5.2694065285
           2        4             -72756.3614292673             -72756.3455332982
           2        5             -11752.9540485422             -11752.9537432312
           2        6              -2661.6688907512              -2661.6688665331
           2        7               -540.5896105047               -540.5896055203
           2        8                -72.7908481524                -72.7908468153
           2        9                 -5.3401621742                 -5.3401502309
           2       10             -10284.1387930292             -10284.1387882864
           2       11              -2232.7118776591              -2232.7118708731
           2       12               -400.6751317494               -400.6751282934
           2       13                -39.2123285965                -39.2123277993
           2       14              -1734.3599264877              -1734.3599235822
           2       15               -222.0337629909               -222.0337609955
           2       16                 -3.4798062191                 -3.4798025243
           2       17                -24.6865830214                -24.6865826562

  Preparing densities etc. for the partition functions (integrals / Hartree potential).

  Preparations completed.
  max(cpu_time)          :      0.420 s.
  Wall clock time (cpu1) :      2.399 s.
------------------------------------------------------------

------------------------------------------------------------
          Begin self-consistency loop: Initialization.

          Date     :  20160710, Time     :  144329.451
------------------------------------------------------------

  Initializing index lists of integration centers etc. from given atomic structure:
  Mapping all atomic coordinates to central unit cell.

  Initializing the k-points
          Using symmetry for reducing the k-points
  | k-points reduced from:     1728 to      868
  | Number of k-points                             :       868
  The eigenvectors in the calculations are COMPLEX.
  | K-points in task   0:        13
  | K-points in task   1:        14
  | K-points in task   2:        14
  | K-points in task   3:        14
  | K-points in task   4:        14
  | K-points in task   5:        14
  | K-points in task   6:        14
  | K-points in task   7:        14
  | K-points in task   8:        14
  | K-points in task   9:        14
  | K-points in task  10:        14
  | K-points in task  11:        14
  | K-points in task  12:        14
  | K-points in task  13:        14
  | K-points in task  14:        14
  | K-points in task  15:        14
  | K-points in task  16:        14
  | K-points in task  17:        14
  | K-points in task  18:        14
  | K-points in task  19:        14
  | K-points in task  20:        14
  | K-points in task  21:        14
  | K-points in task  22:        14
  | K-points in task  23:        14
  | K-points in task  24:        14
  | K-points in task  25:        14
  | K-points in task  26:        14
  | K-points in task  27:        14
  | K-points in task  28:        14
  | K-points in task  29:        14
  | K-points in task  30:        14
  | K-points in task  31:        14
  | K-points in task  32:        14
  | K-points in task  33:        14
  | K-points in task  34:        14
  | K-points in task  35:        14
  | K-points in task  36:        14
  | K-points in task  37:        13
  | K-points in task  38:        13
  | K-points in task  39:        13
  | K-points in task  40:        13
  | K-points in task  41:        13
  | K-points in task  42:        13
  | K-points in task  43:        13
  | K-points in task  44:        13
  | K-points in task  45:        13
  | K-points in task  46:        13
  | K-points in task  47:        13
  | K-points in task  48:        13
  | K-points in task  49:        13
  | K-points in task  50:        13
  | K-points in task  51:        13
  | K-points in task  52:        13
  | K-points in task  53:        13
  | K-points in task  54:        13
  | K-points in task  55:        13
  | K-points in task  56:        13
  | K-points in task  57:        13
  | K-points in task  58:        13
  | K-points in task  59:        13
  | K-points in task  60:        13
  | K-points in task  61:        13
  | K-points in task  62:        13
  | K-points in task  63:        13
  | Number of basis functions in the Hamiltonian integrals :      3246
  | Number of basis functions in a single unit cell        :       180
  | Number of centers in hartree potential         :      1304
  | Number of centers in hartree multipole         :      1088
  | Number of centers in electron density summation:       792
  | Number of centers in basis integrals           :       920
  | Number of centers in integrals                 :       275
  | Consuming       1681 KiB for k_phase.
  | Number of super-cells :                 124
  | Size of matrix packed + index :      323629
  Perform CPU consistency test for lattice for partition grid
  Perform CPU consistency test for map_to_center_cell_matrix for partition grid
  Partitioning the integration grid into batches with parallel hashing+maxmin method.
  | Number of batches:     2066
  | Maximal batch size:     118
  | Minimal batch size:      53
  | Average batch size:      90.037
  | Standard deviation of batch sizes:      12.103

  Integration load balanced across    64 MPI tasks.
  Work distribution over tasks is as follows:
  Task     0 has       2934 integration points.
  Task     1 has       2955 integration points.
  Task     2 has       2961 integration points.
  Task     3 has       2965 integration points.
  Task     4 has       2958 integration points.
  Task     5 has       2857 integration points.
  Task     6 has       2960 integration points.
  Task     7 has       2960 integration points.
  Task     8 has       2854 integration points.
  Task     9 has       2953 integration points.
  Task    10 has       2952 integration points.
  Task    11 has       2909 integration points.
  Task    12 has       2961 integration points.
  Task    13 has       2853 integration points.
  Task    14 has       2854 integration points.
  Task    15 has       2906 integration points.
  Task    16 has       2856 integration points.
  Task    17 has       2942 integration points.
  Task    18 has       2855 integration points.
  Task    19 has       2860 integration points.
  Task    20 has       2959 integration points.
  Task    21 has       2904 integration points.
  Task    22 has       2956 integration points.
  Task    23 has       2956 integration points.
  Task    24 has       2858 integration points.
  Task    25 has       2955 integration points.
  Task    26 has       2853 integration points.
  Task    27 has       2958 integration points.
  Task    28 has       2906 integration points.
  Task    29 has       2955 integration points.
  Task    30 has       2958 integration points.
  Task    31 has       2905 integration points.
  Task    32 has       2858 integration points.
  Task    33 has       2952 integration points.
  Task    34 has       2958 integration points.
  Task    35 has       2960 integration points.
  Task    36 has       2907 integration points.
  Task    37 has       2955 integration points.
  Task    38 has       2856 integration points.
  Task    39 has       2957 integration points.
  Task    40 has       2856 integration points.
  Task    41 has       2906 integration points.
  Task    42 has       2857 integration points.
  Task    43 has       2958 integration points.
  Task    44 has       2859 integration points.
  Task    45 has       2909 integration points.
  Task    46 has       2903 integration points.
  Task    47 has       2853 integration points.
  Task    48 has       2859 integration points.
  Task    49 has       2858 integration points.
  Task    50 has       2853 integration points.
  Task    51 has       2856 integration points.
  Task    52 has       2962 integration points.
  Task    53 has       2868 integration points.
  Task    54 has       2863 integration points.
  Task    55 has       2951 integration points.
  Task    56 has       2854 integration points.
  Task    57 has       2860 integration points.
  Task    58 has       2867 integration points.
  Task    59 has       2854 integration points.
  Task    60 has       2877 integration points.
  Task    61 has       2854 integration points.
  Task    62 has       2906 integration points.
  Task    63 has       2942 integration points.
  Initializing partition tables, free-atom densities, potentials, etc. across the integration grid (initialize_grid_storage).
  | initialize_grid_storage: Actual outermost partition radius vs. multipole_radius_free
  | (-- VB: in principle, multipole_radius_free should be larger, hence this output)
  | Species        1: outer_partition_radius =              6.000000000000000 AA, multipole_radius_free =              6.029870734432609 AA.
  | Species        2: outer_partition_radius =              6.000000000000000 AA, multipole_radius_free =              6.000977218639508 AA.
  | Original list of interatomic distances with         920 x        920 entries is created.
  | Net number of integration points:   186016
  | of which are non-zero points    :   129536
  | Numerical average free-atom electrostatic potential    :    -32.49984374 eV
  Obtaining max. number of non-zero basis functions in each batch (get_n_compute_maxes).
  | Maximal number of non-zero basis functions:      830 in task     0
  | Maximal number of non-zero basis functions:      790 in task     1
  | Maximal number of non-zero basis functions:      831 in task     2
  | Maximal number of non-zero basis functions:      834 in task     3
  | Maximal number of non-zero basis functions:      828 in task     4
  | Maximal number of non-zero basis functions:      828 in task     5
  | Maximal number of non-zero basis functions:      830 in task     6
  | Maximal number of non-zero basis functions:      762 in task     7
  | Maximal number of non-zero basis functions:      830 in task     8
  | Maximal number of non-zero basis functions:      825 in task     9
  | Maximal number of non-zero basis functions:      831 in task    10
  | Maximal number of non-zero basis functions:      826 in task    11
  | Maximal number of non-zero basis functions:      827 in task    12
  | Maximal number of non-zero basis functions:      828 in task    13
  | Maximal number of non-zero basis functions:      828 in task    14
  | Maximal number of non-zero basis functions:      819 in task    15
  | Maximal number of non-zero basis functions:      778 in task    16
  | Maximal number of non-zero basis functions:      826 in task    17
  | Maximal number of non-zero basis functions:      778 in task    18
  | Maximal number of non-zero basis functions:      777 in task    19
  | Maximal number of non-zero basis functions:      825 in task    20
  | Maximal number of non-zero basis functions:      830 in task    21
  | Maximal number of non-zero basis functions:      800 in task    22
  | Maximal number of non-zero basis functions:      831 in task    23
  | Maximal number of non-zero basis functions:      813 in task    24
  | Maximal number of non-zero basis functions:      831 in task    25
  | Maximal number of non-zero basis functions:      826 in task    26
  | Maximal number of non-zero basis functions:      760 in task    27
  | Maximal number of non-zero basis functions:      830 in task    28
  | Maximal number of non-zero basis functions:      827 in task    29
  | Maximal number of non-zero basis functions:      834 in task    30
  | Maximal number of non-zero basis functions:      831 in task    31
  | Maximal number of non-zero basis functions:      831 in task    32
  | Maximal number of non-zero basis functions:      831 in task    33
  | Maximal number of non-zero basis functions:      831 in task    34
  | Maximal number of non-zero basis functions:      744 in task    35
  | Maximal number of non-zero basis functions:      831 in task    36
  | Maximal number of non-zero basis functions:      751 in task    37
  | Maximal number of non-zero basis functions:      778 in task    38
  | Maximal number of non-zero basis functions:      800 in task    39
  | Maximal number of non-zero basis functions:      830 in task    40
  | Maximal number of non-zero basis functions:      830 in task    41
  | Maximal number of non-zero basis functions:      834 in task    42
  | Maximal number of non-zero basis functions:      790 in task    43
  | Maximal number of non-zero basis functions:      828 in task    44
  | Maximal number of non-zero basis functions:      813 in task    45
  | Maximal number of non-zero basis functions:      834 in task    46
  | Maximal number of non-zero basis functions:      828 in task    47
  | Maximal number of non-zero basis functions:      828 in task    48
  | Maximal number of non-zero basis functions:      810 in task    49
  | Maximal number of non-zero basis functions:      830 in task    50
  | Maximal number of non-zero basis functions:      760 in task    51
  | Maximal number of non-zero basis functions:      834 in task    52
  | Maximal number of non-zero basis functions:      825 in task    53
  | Maximal number of non-zero basis functions:      834 in task    54
  | Maximal number of non-zero basis functions:      751 in task    55
  | Maximal number of non-zero basis functions:      834 in task    56
  | Maximal number of non-zero basis functions:      781 in task    57
  | Maximal number of non-zero basis functions:      831 in task    58
  | Maximal number of non-zero basis functions:      751 in task    59
  | Maximal number of non-zero basis functions:      825 in task    60
  | Maximal number of non-zero basis functions:      780 in task    61
  | Maximal number of non-zero basis functions:      759 in task    62
  | Maximal number of non-zero basis functions:      834 in task    63
  Integrating Hamiltonian matrix: batch-based integration.
  Time summed over all CPUs for integration: real work       27.665 s, elapsed       29.878 s
  Integrating overlap matrix.
  Time summed over all CPUs for integration: real work       16.203 s, elapsed       17.062 s
  Decreasing sparse matrix size:
   Tolerance:  9.999999824516700E-014
   Hamiltonian matrix
  | Array has   210116 nonzero elements out of   323629 elements
  | Sparsity factor is 0.351
   Overlap matrix
  | Array has   193324 nonzero elements out of   323629 elements
  | Sparsity factor is 0.403
  New size of hamiltonian matrix:      212781

  Updating Kohn-Sham eigenvalues, eigenvectors, occupation numbers, and Fermi level.
  Solving generalized eigenproblem
  Transforming overlap matrix and checking for singularities.
  Overlap matrix is nonsingular at first k-point:
  | Lowest eigenvalue:  0.945077E-01
  Determining occupation numbers for Kohn-Sham eigenstates.
  | Chemical potential (Fermi level) in eV                 : -.66905637E+01
  | Error in electron count due to remaining E_F inaccuracy: -.70667738E-09
  | Maximum occupation number of highest empty state:  1.72E-34

  Writing Kohn-Sham eigenvalues.
  K-point:       1 at    0.000000    0.000000    0.000000 (in units of recip. lattice)

  State    Occupation    Eigenvalue [Ha]    Eigenvalue [eV]
      1       2.00000       -2673.775502       -72757.13325
      2       2.00000       -2673.775502       -72757.13325
      3       2.00000       -2673.775502       -72757.13325
      4       2.00000       -2673.775502       -72757.13325
      5       2.00000        -431.939953       -11753.68414
      6       2.00000        -431.939953       -11753.68414
      7       2.00000        -431.939953       -11753.68414
      8       2.00000        -431.939953       -11753.68414
      9       2.00000        -377.961761       -10284.86282
     10       2.00000        -377.961761       -10284.86282
     11       2.00000        -377.961761       -10284.86282
     12       2.00000        -377.961761       -10284.86282
     13       2.00000        -377.961761       -10284.86282
     14       2.00000        -377.961761       -10284.86282
     15       2.00000        -377.961761       -10284.86282
     16       2.00000        -377.961761       -10284.86282
     17       2.00000        -377.961761       -10284.86282
     18       2.00000        -377.961761       -10284.86282
     19       2.00000        -377.961761       -10284.86282
     20       2.00000        -377.961761       -10284.86282
     21       2.00000         -97.841673        -2662.40737
     22       2.00000         -97.841673        -2662.40737
     23       2.00000         -97.841673        -2662.40737
     24       2.00000         -97.841673        -2662.40737
     25       2.00000         -82.077756        -2233.44938
     26       2.00000         -82.077756        -2233.44938
     27       2.00000         -82.077756        -2233.44938
     28       2.00000         -82.077756        -2233.44938
     29       2.00000         -82.077756        -2233.44938
     30       2.00000         -82.077756        -2233.44938
     31       2.00000         -82.077756        -2233.44938
     32       2.00000         -82.077756        -2233.44938
     33       2.00000         -82.077756        -2233.44938
     34       2.00000         -82.077756        -2233.44938
     35       2.00000         -82.077756        -2233.44938
     36       2.00000         -82.077756        -2233.44938
     37       2.00000         -63.763564        -1735.09485
     38       2.00000         -63.763564        -1735.09485
     39       2.00000         -63.763564        -1735.09485
     40       2.00000         -63.763564        -1735.09485
     41       2.00000         -63.763564        -1735.09485
     42       2.00000         -63.763564        -1735.09485
     43       2.00000         -63.763564        -1735.09485
     44       2.00000         -63.763564        -1735.09485
     45       2.00000         -63.763562        -1735.09480
     46       2.00000         -63.763562        -1735.09480
     47       2.00000         -63.763562        -1735.09480
     48       2.00000         -63.763562        -1735.09480
     49       2.00000         -63.763562        -1735.09480
     50       2.00000         -63.763562        -1735.09480
     51       2.00000         -63.763562        -1735.09480
     52       2.00000         -63.763562        -1735.09480
     53       2.00000         -63.763562        -1735.09480
     54       2.00000         -63.763562        -1735.09480
     55       2.00000         -63.763562        -1735.09480
     56       2.00000         -63.763562        -1735.09480
     57       2.00000         -19.895651         -541.38820
     58       2.00000         -19.895651         -541.38820
     59       2.00000         -19.895651         -541.38820
     60       2.00000         -19.895651         -541.38820
     61       2.00000         -14.754298         -401.48488
     62       2.00000         -14.754298         -401.48488
     63       2.00000         -14.754298         -401.48488
     64       2.00000         -14.754298         -401.48488
     65       2.00000         -14.754298         -401.48488
     66       2.00000         -14.754298         -401.48488
     67       2.00000         -14.754298         -401.48488
     68       2.00000         -14.754298         -401.48488
     69       2.00000         -14.754298         -401.48488
     70       2.00000         -14.754298         -401.48488
     71       2.00000         -14.754298         -401.48488
     72       2.00000         -14.754298         -401.48488
     73       2.00000         -10.178950         -276.98332
     74       2.00000         -10.178950         -276.98332
     75       2.00000         -10.178950         -276.98332
     76       2.00000         -10.178950         -276.98332
     77       2.00000          -8.190045         -222.86247
     78       2.00000          -8.190045         -222.86247
     79       2.00000          -8.190045         -222.86247
     80       2.00000          -8.190045         -222.86247
     81       2.00000          -8.190045         -222.86247
     82       2.00000          -8.190045         -222.86247
     83       2.00000          -8.190045         -222.86247
     84       2.00000          -8.190045         -222.86247
     85       2.00000          -8.189929         -222.85931
     86       2.00000          -8.189929         -222.85931
     87       2.00000          -8.189929         -222.85931
     88       2.00000          -8.189929         -222.85931
     89       2.00000          -8.189929         -222.85931
     90       2.00000          -8.189929         -222.85931
     91       2.00000          -8.189929         -222.85930
     92       2.00000          -8.189929         -222.85930
     93       2.00000          -8.189929         -222.85930
     94       2.00000          -8.189929         -222.85930
     95       2.00000          -8.189929         -222.85930
     96       2.00000          -8.189929         -222.85930
     97       2.00000          -2.724798          -74.14554
     98       2.00000          -2.722232          -74.07570
     99       2.00000          -2.722232          -74.07570
    100       2.00000          -2.722232          -74.07570
    101       2.00000          -1.519796          -41.35575
    102       2.00000          -1.519796          -41.35575
    103       2.00000          -1.519796          -41.35575
    104       2.00000          -1.503310          -40.90714
    105       2.00000          -1.503310          -40.90714
    106       2.00000          -1.503310          -40.90714
    107       2.00000          -1.503310          -40.90714
    108       2.00000          -1.503310          -40.90714
    109       2.00000          -1.503310          -40.90714
    110       2.00000          -1.492730          -40.61924
    111       2.00000          -1.492730          -40.61924
    112       2.00000          -1.492730          -40.61924
    113       2.00000          -0.942706          -25.65234
    114       2.00000          -0.942706          -25.65234
    115       2.00000          -0.942706          -25.65234
    116       2.00000          -0.941665          -25.62402
    117       2.00000          -0.941665          -25.62402
    118       2.00000          -0.941665          -25.62402
    119       2.00000          -0.941665          -25.62402
    120       2.00000          -0.941665          -25.62402
    121       2.00000          -0.941665          -25.62402
    122       2.00000          -0.941509          -25.61975
    123       2.00000          -0.941498          -25.61948
    124       2.00000          -0.941498          -25.61948
    125       2.00000          -0.941498          -25.61948
    126       2.00000          -0.941231          -25.61219
    127       2.00000          -0.941231          -25.61219
    128       2.00000          -0.941231          -25.61219
    129       2.00000          -0.941026          -25.60661
    130       2.00000          -0.941026          -25.60661
    131       2.00000          -0.941026          -25.60661
    132       2.00000          -0.941026          -25.60661
    133       2.00000          -0.941026          -25.60661
    134       2.00000          -0.941026          -25.60661
    135       2.00000          -0.940190          -25.58387
    136       2.00000          -0.940190          -25.58387
    137       2.00000          -0.940190          -25.58387
    138       2.00000          -0.940053          -25.58014
    139       2.00000          -0.940053          -25.58014
    140       2.00000          -0.940053          -25.58014
    141       2.00000          -0.851760          -23.17757
    142       2.00000          -0.785493          -21.37436
    143       2.00000          -0.785493          -21.37436
    144       2.00000          -0.785493          -21.37436
    145       2.00000          -0.466778          -12.70168
    146       2.00000          -0.466778          -12.70168
    147       2.00000          -0.466778          -12.70168
    148       2.00000          -0.408738          -11.12234
    149       2.00000          -0.408738          -11.12234
    150       2.00000          -0.408738          -11.12234
    151       2.00000          -0.380766          -10.36117
    152       2.00000          -0.380766          -10.36117
    153       2.00000          -0.380766          -10.36117
    154       2.00000          -0.380766          -10.36117
    155       2.00000          -0.380766          -10.36117
    156       2.00000          -0.380766          -10.36117
    157       2.00000          -0.344767           -9.38160
    158       2.00000          -0.344767           -9.38160
    159       2.00000          -0.344767           -9.38160
    160       1.99975          -0.278882           -7.58875
    161       1.99975          -0.278882           -7.58875
    162       1.99975          -0.278882           -7.58875
    163       0.00004          -0.205693           -5.59720
    164       0.00004          -0.205693           -5.59720
    165       0.00000          -0.128633           -3.50029
    166       0.00000          -0.128633           -3.50029
    167       0.00000          -0.128633           -3.50029
    168       0.00000          -0.071307           -1.94037
    169       0.00000          -0.071307           -1.94037
    170       0.00000          -0.071307           -1.94037
    171       0.00000          -0.071307           -1.94037
    172       0.00000          -0.071307           -1.94037
    173       0.00000          -0.071307           -1.94037
    174       0.00000          -0.048904           -1.33074
    175       0.00000           0.022605            0.61511
    176       0.00000           0.022605            0.61511
    177       0.00000           0.022605            0.61511
    178       0.00000           0.042387            1.15341
    179       0.00000           0.042387            1.15341
    180       0.00000           0.042387            1.15341

  What follows are estimated values for band gap, HOMO, LUMO, etc.
  | They are estimated on a discrete k-point grid and not necessarily exact.
  | For converged numbers, create a DOS and/or band structure plot on a denser k-grid.

  Highest occupied state (VBM) at     -6.70365024 eV (relative to internal zero)
  | Occupation number:      1.06533940
  | K-point:     794 at    0.750000    0.916667    0.250000 (in units of recip. lattice)

  Lowest unoccupied state (CBM) at    -6.68391494 eV (relative to internal zero)
  | Occupation number:      0.96676837
  | K-point:     787 at    0.750000    0.666667    0.916667 (in units of recip. lattice)

  ESTIMATED overall HOMO-LUMO gap:      0.01973530 eV between HOMO at k-point 794 and LUMO at k-point 787
  | This appears to be an indirect band gap.
  | Smallest direct gap :      0.09356936 eV for k_point 93 at    0.750000    0.666667    0.916667 (in units of recip. lattice)
  However, the gap value is rather small. Since we use a finite k-point grid,
  this material is most likely metallic (in the sense that there are states
  at or near the Fermi level). A DOS and/or band structure plot is required
  for an unambiguous distinction.
  Calculating total energy contributions from superposition of free atom densities.

  Total energy components:
  | Sum of eigenvalues            :      -40271.59626905 Ha    -1095845.89050581 eV
  | XC energy correction          :       -1300.07208738 Ha      -35376.76144733 eV
  | XC potential correction       :        1699.65380197 Ha       46249.93312233 eV
  | Free-atom electrostatic energy:      -24551.97461203 Ha     -668093.22140223 eV
  | Hartree energy correction     :           0.00000000 Ha           0.00000000 eV
  | Entropy correction            :           0.00001496 Ha           0.00040700 eV
  | ---------------------------
  | Total energy                  :      -64423.98916648 Ha    -1753065.94023304 eV
  | Total energy, T -> 0          :      -64423.98915153 Ha    -1753065.93982604 eV  <-- do not rely on this value for anything but (periodic) metals
  | Electronic free energy        :      -64423.98913657 Ha    -1753065.93941905 eV

  Derived energy quantities:
  | Kinetic energy                :       70910.97833417 Ha     1929585.89672231 eV
  | Electrostatic energy          :     -134034.89541328 Ha    -3647275.07550803 eV
  | Energy correction for multipole
  | error in Hartree potential    :           0.00000000 Ha           0.00000000 eV
  | Sum of eigenvalues per atom                           :     -136980.73631323 eV
  | Total energy (T->0) per atom                          :     -219133.24247826 eV  <-- do not rely on this value for anything but (periodic) metals
  | Electronic free energy per atom                       :     -219133.24242738 eV
  Initialize hartree_potential_storage
  Max. number of atoms included in rho_multipole:            8

  End scf initialization - timings             :  max(cpu_time)    wall_clock(cpu1)
  | Time for scf. initialization               :        2.504 s           2.687 s
  | Boundary condition initialization          :        0.192 s           0.217 s
  | Integration                                :        0.776 s           0.807 s
  | Solution of K.-S. eqns.                    :        0.644 s           0.651 s
  | Grid partitioning                          :        0.128 s           0.135 s
  | Preloading free-atom quantities on grid    :        0.044 s           0.138 s
  | Free-atom superposition energy             :        0.064 s           0.067 s
  | Total energy evaluation                    :        0.008 s           0.029 s
------------------------------------------------------------

------------------------------------------------------------
          Begin self-consistency iteration #    1

  Date     :  20160710, Time     :  144332.144
------------------------------------------------------------
  Evaluating new KS density using the density matrix
  Evaluating density matrix
  Time summed over all CPUs for getting density from density matrix: real work       37.491 s, elapsed       39.977 s
  Integration grid: deviation in total charge (<rho> - N_e) =  -7.072458E-10
  Pulay mixing of updated and previous charge densities.

  Evaluating partitioned Hartree potential by multipole expansion.
  | Analytical far-field extrapolation by fixed multipoles:
  | Hartree multipole sum: apparent total charge =   0.198024E-03
  Summing up the Hartree potential.
  | Estimated reciprocal-space cutoff momentum G_max:         3.32253784 bohr^-1 .
  | Reciprocal lattice points for long-range Hartree potential:     364
  Time summed over all CPUs for potential: real work       23.228 s, elapsed       26.756 s
  | RMS charge density error from multipole expansion :   0.169022E-03
  | Average real-space part of the electrostatic potential :      0.00967760 eV

  Integrating Hamiltonian matrix: batch-based integration.
  Time summed over all CPUs for integration: real work       21.192 s, elapsed       22.485 s

  Updating Kohn-Sham eigenvalues, eigenvectors, occupation numbers, and Fermi level.
  Solving generalized eigenproblem
  Determining occupation numbers for Kohn-Sham eigenstates.
  | Chemical potential (Fermi level) in eV                 : -.66941035E+01
  | Error in electron count due to remaining E_F inaccuracy: -.62544814E-09
  | Maximum occupation number of highest empty state:  1.49E-34

  Writing Kohn-Sham eigenvalues.
  K-point:       1 at    0.000000    0.000000    0.000000 (in units of recip. lattice)

  State    Occupation    Eigenvalue [Ha]    Eigenvalue [eV]
      1       2.00000       -2673.777030       -72757.17483
      2       2.00000       -2673.777030       -72757.17483
      3       2.00000       -2673.777030       -72757.17483
      4       2.00000       -2673.777030       -72757.17483
      5       2.00000        -431.941479       -11753.72567
      6       2.00000        -431.941479       -11753.72567
      7       2.00000        -431.941479       -11753.72567
      8       2.00000        -431.941479       -11753.72567
      9       2.00000        -377.963290       -10284.90441
     10       2.00000        -377.963290       -10284.90441
     11       2.00000        -377.963290       -10284.90441
     12       2.00000        -377.963290       -10284.90441
     13       2.00000        -377.963290       -10284.90441
     14       2.00000        -377.963290       -10284.90441
     15       2.00000        -377.963290       -10284.90441
     16       2.00000        -377.963290       -10284.90441
     17       2.00000        -377.963290       -10284.90441
     18       2.00000        -377.963290       -10284.90441
     19       2.00000        -377.963290       -10284.90441
     20       2.00000        -377.963290       -10284.90441
     21       2.00000         -97.843116        -2662.44665
     22       2.00000         -97.843116        -2662.44665
     23       2.00000         -97.843116        -2662.44665
     24       2.00000         -97.843116        -2662.44665
     25       2.00000         -82.079199        -2233.48865
     26       2.00000         -82.079199        -2233.48865
     27       2.00000         -82.079199        -2233.48865
     28       2.00000         -82.079199        -2233.48865
     29       2.00000         -82.079199        -2233.48865
     30       2.00000         -82.079199        -2233.48865
     31       2.00000         -82.079199        -2233.48865
     32       2.00000         -82.079199        -2233.48865
     33       2.00000         -82.079199        -2233.48865
     34       2.00000         -82.079199        -2233.48865
     35       2.00000         -82.079199        -2233.48865
     36       2.00000         -82.079199        -2233.48865
     37       2.00000         -63.765021        -1735.13451
     38       2.00000         -63.765021        -1735.13451
     39       2.00000         -63.765021        -1735.13451
     40       2.00000         -63.765021        -1735.13451
     41       2.00000         -63.765021        -1735.13451
     42       2.00000         -63.765021        -1735.13451
     43       2.00000         -63.765021        -1735.13451
     44       2.00000         -63.765021        -1735.13451
     45       2.00000         -63.765018        -1735.13443
     46       2.00000         -63.765018        -1735.13443
     47       2.00000         -63.765018        -1735.13443
     48       2.00000         -63.765018        -1735.13443
     49       2.00000         -63.765018        -1735.13443
     50       2.00000         -63.765018        -1735.13443
     51       2.00000         -63.765018        -1735.13443
     52       2.00000         -63.765018        -1735.13443
     53       2.00000         -63.765018        -1735.13443
     54       2.00000         -63.765018        -1735.13443
     55       2.00000         -63.765018        -1735.13443
     56       2.00000         -63.765018        -1735.13443
     57       2.00000         -19.896983         -541.42446
     58       2.00000         -19.896983         -541.42446
     59       2.00000         -19.896983         -541.42446
     60       2.00000         -19.896983         -541.42446
     61       2.00000         -14.755621         -401.52087
     62       2.00000         -14.755621         -401.52087
     63       2.00000         -14.755621         -401.52087
     64       2.00000         -14.755621         -401.52087
     65       2.00000         -14.755621         -401.52087
     66       2.00000         -14.755621         -401.52087
     67       2.00000         -14.755621         -401.52087
     68       2.00000         -14.755621         -401.52087
     69       2.00000         -14.755621         -401.52087
     70       2.00000         -14.755621         -401.52087
     71       2.00000         -14.755621         -401.52087
     72       2.00000         -14.755621         -401.52087
     73       2.00000         -10.174622         -276.86554
     74       2.00000         -10.174621         -276.86554
     75       2.00000         -10.174621         -276.86554
     76       2.00000         -10.174621         -276.86554
     77       2.00000          -8.191358         -222.89819
     78       2.00000          -8.191358         -222.89819
     79       2.00000          -8.191358         -222.89819
     80       2.00000          -8.191358         -222.89819
     81       2.00000          -8.191358         -222.89819
     82       2.00000          -8.191358         -222.89819
     83       2.00000          -8.191358         -222.89819
     84       2.00000          -8.191358         -222.89819
     85       2.00000          -8.191241         -222.89501
     86       2.00000          -8.191241         -222.89501
     87       2.00000          -8.191241         -222.89501
     88       2.00000          -8.191241         -222.89501
     89       2.00000          -8.191241         -222.89501
     90       2.00000          -8.191241         -222.89501
     91       2.00000          -8.191241         -222.89500
     92       2.00000          -8.191241         -222.89500
     93       2.00000          -8.191241         -222.89500
     94       2.00000          -8.191241         -222.89500
     95       2.00000          -8.191241         -222.89500
     96       2.00000          -8.191241         -222.89500
     97       2.00000          -2.725883          -74.17506
     98       2.00000          -2.723321          -74.10534
     99       2.00000          -2.723321          -74.10534
    100       2.00000          -2.723321          -74.10534
    101       2.00000          -1.520707          -41.38055
    102       2.00000          -1.520707          -41.38055
    103       2.00000          -1.520707          -41.38055
    104       2.00000          -1.504257          -40.93290
    105       2.00000          -1.504257          -40.93290
    106       2.00000          -1.504257          -40.93290
    107       2.00000          -1.504257          -40.93290
    108       2.00000          -1.504257          -40.93290
    109       2.00000          -1.504257          -40.93290
    110       2.00000          -1.493699          -40.64562
    111       2.00000          -1.493699          -40.64562
    112       2.00000          -1.493699          -40.64562
    113       2.00000          -0.943961          -25.68648
    114       2.00000          -0.943961          -25.68648
    115       2.00000          -0.943961          -25.68648
    116       2.00000          -0.942926          -25.65831
    117       2.00000          -0.942926          -25.65831
    118       2.00000          -0.942926          -25.65831
    119       2.00000          -0.942926          -25.65831
    120       2.00000          -0.942926          -25.65831
    121       2.00000          -0.942926          -25.65831
    122       2.00000          -0.942779          -25.65431
    123       2.00000          -0.942766          -25.65397
    124       2.00000          -0.942766          -25.65397
    125       2.00000          -0.942766          -25.65397
    126       2.00000          -0.942496          -25.64662
    127       2.00000          -0.942496          -25.64662
    128       2.00000          -0.942496          -25.64662
    129       2.00000          -0.942293          -25.64110
    130       2.00000          -0.942293          -25.64110
    131       2.00000          -0.942293          -25.64110
    132       2.00000          -0.942293          -25.64110
    133       2.00000          -0.942293          -25.64110
    134       2.00000          -0.942293          -25.64110
    135       2.00000          -0.941462          -25.61848
    136       2.00000          -0.941462          -25.61848
    137       2.00000          -0.941462          -25.61848
    138       2.00000          -0.941322          -25.61468
    139       2.00000          -0.941322          -25.61468
    140       2.00000          -0.941322          -25.61468
    141       2.00000          -0.850821          -23.15201
    142       2.00000          -0.784307          -21.34208
    143       2.00000          -0.784307          -21.34208
    144       2.00000          -0.784307          -21.34208
    145       2.00000          -0.465716          -12.67277
    146       2.00000          -0.465716          -12.67277
    147       2.00000          -0.465716          -12.67277
    148       2.00000          -0.409170          -11.13407
    149       2.00000          -0.409170          -11.13407
    150       2.00000          -0.409170          -11.13407
    151       2.00000          -0.379188          -10.31822
    152       2.00000          -0.379188          -10.31822
    153       2.00000          -0.379188          -10.31822
    154       2.00000          -0.379188          -10.31822
    155       2.00000          -0.379188          -10.31822
    156       2.00000          -0.379188          -10.31822
    157       2.00000          -0.342990           -9.33323
    158       2.00000          -0.342990           -9.33323
    159       2.00000          -0.342990           -9.33323
    160       1.99978          -0.279430           -7.60368
    161       1.99978          -0.279430           -7.60368
    162       1.99978          -0.279430           -7.60368
    163       0.00004          -0.206197           -5.61092
    164       0.00004          -0.206197           -5.61092
    165       0.00000          -0.129206           -3.51588
    166       0.00000          -0.129206           -3.51588
    167       0.00000          -0.129206           -3.51588
    168       0.00000          -0.072068           -1.96106
    169       0.00000          -0.072068           -1.96106
    170       0.00000          -0.072068           -1.96106
    171       0.00000          -0.072068           -1.96106
    172       0.00000          -0.072068           -1.96106
    173       0.00000          -0.072068           -1.96106
    174       0.00000          -0.047983           -1.30567
    175       0.00000           0.022208            0.60431
    176       0.00000           0.022208            0.60431
    177       0.00000           0.022208            0.60431
    178       0.00000           0.042784            1.16421
    179       0.00000           0.042784            1.16421
    180       0.00000           0.042784            1.16421

  What follows are estimated values for band gap, HOMO, LUMO, etc.
  | They are estimated on a discrete k-point grid and not necessarily exact.
  | For converged numbers, create a DOS and/or band structure plot on a denser k-grid.

  Highest occupied state (VBM) at     -6.71454188 eV (relative to internal zero)
  | Occupation number:      1.10183747
  | K-point:     363 at    0.250000    0.666667    0.000000 (in units of recip. lattice)

  Lowest unoccupied state (CBM) at    -6.68443169 eV (relative to internal zero)
  | Occupation number:      0.95167842
  | K-point:     108 at    0.083333    0.250000    0.666667 (in units of recip. lattice)

  ESTIMATED overall HOMO-LUMO gap:      0.03011019 eV between HOMO at k-point 363 and LUMO at k-point 108
  | This appears to be an indirect band gap.
  | Smallest direct gap :      0.08752031 eV for k_point 69 at    0.083333    0.250000    0.666667 (in units of recip. lattice)
  However, the gap value is rather small. Since we use a finite k-point grid,
  this material is most likely metallic (in the sense that there are states
  at or near the Fermi level). A DOS and/or band structure plot is required
  for an unambiguous distinction.

  Total energy components:
  | Sum of eigenvalues            :      -40271.89421107 Ha    -1095853.99792063 eV
  | XC energy correction          :       -1300.07288316 Ha      -35376.78310162 eV
  | XC potential correction       :        1699.65446166 Ha       46249.95107343 eV
  | Free-atom electrostatic energy:      -24551.97461203 Ha     -668093.22140223 eV
  | Hartree energy correction     :           0.31094934 Ha           8.46136194 eV
  | Entropy correction            :           0.00001763 Ha           0.00047985 eV
  | ---------------------------
  | Total energy                  :      -64423.97629526 Ha    -1753065.58998912 eV
  | Total energy, T -> 0          :      -64423.97627762 Ha    -1753065.58950927 eV  <-- do not rely on this value for anything but (periodic) metals
  | Electronic free energy        :      -64423.97625999 Ha    -1753065.58902942 eV

  Derived energy quantities:
  | Kinetic energy                :       70910.95231898 Ha     1929585.18881285 eV
  | Electrostatic energy          :     -134034.85573108 Ha    -3647273.99570035 eV
  | Energy correction for multipole
  | error in Hartree potential    :           0.00006946 Ha           0.00188998 eV
  | Sum of eigenvalues per atom                           :     -136981.74974008 eV
  | Total energy (T->0) per atom                          :     -219133.19868866 eV  <-- do not rely on this value for anything but (periodic) metals
  | Electronic free energy per atom                       :     -219133.19862868 eV

  Self-consistency convergence accuracy:
  | Change of charge density      : 0.6206E+00
  | Change of sum of eigenvalues  : -.8107E+01 eV
  | Change of total energy        : 0.3502E+00 eV

  End self-consistency iteration #     1       :  max(cpu_time)    wall_clock(cpu1)
  | Time for this iteration                    :        2.088 s           2.174 s
  | Charge density update                      :        0.792 s           0.816 s
  | Density mixing & preconditioning           :        0.212 s           0.227 s
  | Hartree multipole update                   :        0.016 s           0.020 s
  | Hartree multipole summation                :        0.464 s           0.505 s
  | Integration                                :        0.364 s           0.361 s
  | Solution of K.-S. eqns.                    :        0.228 s           0.224 s
  | Total energy evaluation                    :        0.004 s           0.001 s
------------------------------------------------------------

------------------------------------------------------------
          Begin self-consistency iteration #    2

  Date     :  20160710, Time     :  144334.324
------------------------------------------------------------
  Evaluating new KS density using the density matrix
  Evaluating density matrix
  Time summed over all CPUs for getting density from density matrix: real work       37.777 s, elapsed       41.428 s
  Integration grid: deviation in total charge (<rho> - N_e) =  -6.253913E-10
  Pulay mixing of updated and previous charge densities.

  Evaluating partitioned Hartree potential by multipole expansion.
  | Analytical far-field extrapolation by fixed multipoles:
  | Hartree multipole sum: apparent total charge =   0.110018E-01
  Summing up the Hartree potential.
  Time summed over all CPUs for potential: real work       21.013 s, elapsed       22.659 s
  | RMS charge density error from multipole expansion :   0.936517E-02
  | Average real-space part of the electrostatic potential :      0.53418175 eV

  Integrating Hamiltonian matrix: batch-based integration.
[...]
  this material is most likely metallic (in the sense that there are states
  at or near the Fermi level). A DOS and/or band structure plot is required
  for an unambiguous distinction.

  Self-consistency cycle converged.

  End self-consistency iteration #    19       :  max(cpu_time)    wall_clock(cpu1)
  | Time for this iteration                    :       17.981 s          18.029 s
  | Charge density & force component update    :       15.929 s          15.963 s
  | Density mixing                             :        0.004 s           0.002 s
  | Hartree multipole update                   :        0.004 s           0.002 s
  | Hartree multipole summation                :        1.432 s           1.433 s
  | Integration                                :        0.360 s           0.358 s
  | Solution of K.-S. eqns.                    :        0.240 s           0.240 s
  | Total energy evaluation                    :        0.008 s           0.025 s
------------------------------------------------------------
  Obtaining max. number of non-zero basis functions in each batch .
  Evaluating KS electron density on previously omitted grid points, using the density matrix.
  Evaluating density matrix
------------------------------------------------------------
  Quadrupole information:
  | electronic quadrupole moment [eAng^2]     :         -0.117488063325948E+04        -0.117488063324241E+04         0.234976126650189E+04
  | ionic quadrupole moment [eAng^2]          :         -0.117488063325000E+04        -0.117488063325000E+04         0.234976126650000E+04
  | Total quadrupole moment [eAng^2]          :         -0.146823552086669E-07         0.484660382835388E-08         0.983550067530277E-08
  Removing unitary transformations (pure translations, rotations) from forces on atoms.
  Atomic forces before filtering:
  | Net force on center of mass :  0.120209E-04 -.291459E-04 -.658799E-04 eV/A
  Atomic forces after filtering:
  | Net force on center of mass :  0.408339E-20 0.000000E+00 -.102085E-19 eV/A

  Energy and forces in a compact form:
  | Total energy uncorrected      :         -0.175305660205647E+07 eV
  | Total energy corrected        :         -0.175305660404507E+07 eV  <-- do not rely on this value for anything but (periodic) metals
  | Electronic free energy        :         -0.175305660603367E+07 eV
  Total atomic forces (unitary forces cleaned) [eV/Ang]:
  |   1         -0.150162155460274E-05          0.364209490515936E-05          0.823161251420235E-05
  |   2         -0.150128005731183E-05          0.364445458753507E-05          0.823766368560310E-05
  |   3         -0.150393187051648E-05          0.364233670682302E-05          0.823727810839627E-05
  |   4         -0.150439374290049E-05          0.364462257115190E-05          0.823292609271023E-05
  |   5         -0.152621758284075E-05          0.346475786030255E-05          0.745531763460529E-05
  |   6          0.169791553997633E-04          0.139236797360639E-07         -0.223635102144815E-04
  |   7         -0.559670674222383E-05          0.883409442750316E-05         -0.227587275465090E-04
  |   8         -0.384500384936713E-05         -0.268862847382111E-04          0.472743972547328E-05

  ------------------------------------ 
  Start decomposition of the XC Energy 
  ------------------------------------ 
  Hartree-Fock part   :          0.000000000 Ha              0.000000000 eV
  ------------------------------------ 
  X Energy            :      -1281.664747228 Ha         -34875.872236904 eV
  C Energy GGA        :        -18.614158828 Ha           -506.517033026 eV
  Total XC Energy     :      -1300.278906056 Ha         -35382.389269930 eV
  LDA X and C from self-consistent density 
  X Energy LDA        :      -1228.699052944 Ha         -33434.602364439 eV
  C Energy LDA        :        -31.806509904 Ha           -865.499170589 eV
  ------------------------------------ 
  End decomposition of the XC Energy 
  ------------------------------------ 

  Performing Mulliken charge analysis on all atoms.
  Full analysis (per state, per k-point, etc.) will NOT be written to separate file 'Mulliken.out'.
  This file can be requested by stating 'output mulliken' explicitly.
  Summary of the per-atom charge analysis:
  |
  |  atom       electrons          charge             l=0             l=1             l=2             l=3
  |     1        6.883703       -0.883703        3.454151        3.429551
  |     2        6.883703       -0.883703        3.454151        3.429551
  |     3        6.883703       -0.883703        3.454151        3.429551
  |     4        6.883703       -0.883703        3.454151        3.429551
  |     5       72.116297        0.883703       10.377790       23.995033       23.745251       13.998223
  |     6       72.116297        0.883703       10.377790       23.995033       23.745251       13.998223
  |     7       72.116297        0.883703       10.377790       23.995033       23.745251       13.998223
  |     8       72.116297        0.883703       10.377790       23.995033       23.745251       13.998223
  |
  | Total      316.000000        0.000000
 

  Calculating atom-projected density of states ...
  | Chemical potential is  -6.586200 eV.
  | writing projected DOS (shifted by the chemical potential) for species C to file atom_projected_dos_C0001.dat.
  | writing projected DOS (raw data) for species C to file atom_proj_dos_C0001_raw.dat.
  | writing projected DOS (shifted by the chemical potential) for species C to file atom_projected_dos_C0002.dat.
  | writing projected DOS (raw data) for species C to file atom_proj_dos_C0002_raw.dat.
  | writing projected DOS (shifted by the chemical potential) for species C to file atom_projected_dos_C0003.dat.
  | writing projected DOS (raw data) for species C to file atom_proj_dos_C0003_raw.dat.
  | writing projected DOS (shifted by the chemical potential) for species C to file atom_projected_dos_C0004.dat.
  | writing projected DOS (raw data) for species C to file atom_proj_dos_C0004_raw.dat.
  | writing projected DOS (shifted by the chemical potential) for species Ta to file atom_projected_dos_Ta0005.dat.
  | writing projected DOS (raw data) for species Ta to file atom_proj_dos_Ta0005_raw.dat.
  | writing projected DOS (shifted by the chemical potential) for species Ta to file atom_projected_dos_Ta0006.dat.
  | writing projected DOS (raw data) for species Ta to file atom_proj_dos_Ta0006_raw.dat.
  | writing projected DOS (shifted by the chemical potential) for species Ta to file atom_projected_dos_Ta0007.dat.
  | writing projected DOS (raw data) for species Ta to file atom_proj_dos_Ta0007_raw.dat.
  | writing projected DOS (shifted by the chemical potential) for species Ta to file atom_projected_dos_Ta0008.dat.
  | writing projected DOS (raw data) for species Ta to file atom_proj_dos_Ta0008_raw.dat.
  Performing Hirshfeld analysis of fragment charges and moments.
  ----------------------------------------------------------------------
  | Atom     1: C
  |   Hirshfeld charge        :     -0.31343350
  |   Free atom volume        :     38.37861207
  |   Hirshfeld volume        :     37.58194261
  |   Hirshfeld dipole vector :     -0.00000000       0.00000000       0.00000000
  |   Hirshfeld dipole moment :      0.00000000
  |   Hirshfeld second moments:     -0.00759197      -0.00000000       0.00000000
  |                                 -0.00000000      -0.00759197      -0.00000000
  |                                  0.00000000      -0.00000000      -0.00759197
  ----------------------------------------------------------------------
  | Atom     2: C
  |   Hirshfeld charge        :     -0.31343350
  |   Free atom volume        :     38.37861207
  |   Hirshfeld volume        :     37.58194261
  |   Hirshfeld dipole vector :     -0.00000000      -0.00000000      -0.00000000
  |   Hirshfeld dipole moment :      0.00000000
  |   Hirshfeld second moments:     -0.00759197       0.00000000      -0.00000000
  |                                  0.00000000      -0.00759197      -0.00000000
  |                                 -0.00000000      -0.00000000      -0.00759197
  ----------------------------------------------------------------------
  | Atom     3: C
  |   Hirshfeld charge        :     -0.31343350
  |   Free atom volume        :     38.37861207
  |   Hirshfeld volume        :     37.58194261
  |   Hirshfeld dipole vector :      0.00000000       0.00000000      -0.00000000
  |   Hirshfeld dipole moment :      0.00000000
  |   Hirshfeld second moments:     -0.00759197       0.00000000       0.00000000
  |                                  0.00000000      -0.00759197       0.00000000
  |                                  0.00000000       0.00000000      -0.00759197
  ----------------------------------------------------------------------
  | Atom     4: C
  |   Hirshfeld charge        :     -0.31343350
  |   Free atom volume        :     38.37861207
  |   Hirshfeld volume        :     37.58194261
  |   Hirshfeld dipole vector :      0.00000000      -0.00000000       0.00000000
  |   Hirshfeld dipole moment :      0.00000000
  |   Hirshfeld second moments:     -0.00759197      -0.00000000      -0.00000000
  |                                 -0.00000000      -0.00759197       0.00000000
  |                                 -0.00000000       0.00000000      -0.00759197
  ----------------------------------------------------------------------
  | Atom     5: Ta
  |   Hirshfeld charge        :      0.31518583
  |   Free atom volume        :    194.48865453
  |   Hirshfeld volume        :    189.07273197
  |   Hirshfeld dipole vector :      0.00000000      -0.00000000      -0.00000000
  |   Hirshfeld dipole moment :      0.00000000
  |   Hirshfeld second moments:      0.16580629      -0.00000000       0.00000000
  |                                 -0.00000000       0.16580629      -0.00000000
  |                                  0.00000000      -0.00000000       0.16580629
  ----------------------------------------------------------------------
  | Atom     6: Ta
  |   Hirshfeld charge        :      0.31518583
  |   Free atom volume        :    194.48865453
  |   Hirshfeld volume        :    189.07273197
  |   Hirshfeld dipole vector :      0.00000000       0.00000000       0.00000000
  |   Hirshfeld dipole moment :      0.00000000
  |   Hirshfeld second moments:      0.16580629       0.00000000      -0.00000000
  |                                  0.00000000       0.16580629      -0.00000000
  |                                 -0.00000000      -0.00000000       0.16580629
  ----------------------------------------------------------------------
  | Atom     7: Ta
  |   Hirshfeld charge        :      0.31518583
  |   Free atom volume        :    194.48865453
  |   Hirshfeld volume        :    189.07273197
  |   Hirshfeld dipole vector :     -0.00000000      -0.00000000       0.00000000
  |   Hirshfeld dipole moment :      0.00000000
  |   Hirshfeld second moments:      0.16580629       0.00000000       0.00000000
  |                                  0.00000000       0.16580629       0.00000000
  |                                  0.00000000       0.00000000       0.16580629
  ----------------------------------------------------------------------
  | Atom     8: Ta
  |   Hirshfeld charge        :      0.31518583
  |   Free atom volume        :    194.48865453
  |   Hirshfeld volume        :    189.07273197
  |   Hirshfeld dipole vector :     -0.00000000       0.00000000      -0.00000000
  |   Hirshfeld dipole moment :      0.00000000
  |   Hirshfeld second moments:      0.16580629      -0.00000000      -0.00000000
  |                                 -0.00000000       0.16580629       0.00000000
  |                                 -0.00000000       0.00000000       0.16580629
  ----------------------------------------------------------------------

  Post-scf processing of Kohn-Sham eigenvalues on a denser k-point grid.
  | Using dos_kgrid_factors to calculate post-scf total density of states.
  | Electron chemical potential:    -6.586199663865 eV.
  Integrating Hamiltonian matrix: batch-based integration.
  Time summed over all CPUs for integration: real work       21.116 s, elapsed       22.642 s
  Processing batch of k-points:     1     1     1
  Processing batch of k-points:     1     1     2
  Processing batch of k-points:     1     1     3
  Processing batch of k-points:     1     2     1
  Processing batch of k-points:     1     2     2
  Processing batch of k-points:     1     2     3
  Processing batch of k-points:     1     3     1
  Processing batch of k-points:     1     3     2
  Processing batch of k-points:     1     3     3
  Processing batch of k-points:     2     1     1
  Processing batch of k-points:     2     1     2
  Processing batch of k-points:     2     1     3
  Processing batch of k-points:     2     2     1
  Processing batch of k-points:     2     2     2
  Processing batch of k-points:     2     2     3
  Processing batch of k-points:     2     3     1
  Processing batch of k-points:     2     3     2
  Processing batch of k-points:     2     3     3
  Processing batch of k-points:     3     1     1
  Processing batch of k-points:     3     1     2
  Processing batch of k-points:     3     1     3
  Processing batch of k-points:     3     2     1
  Processing batch of k-points:     3     2     2
  Processing batch of k-points:     3     2     3
  Processing batch of k-points:     3     3     1
  Processing batch of k-points:     3     3     2
  Processing batch of k-points:     3     3     3
  | writing perturbative DOS (shifted by electron chemical potential) to file KS_dos_total.dat
  | writing perturbative DOS (raw data) to file KS_dos_total_raw.dat

  -------------------------------------------------------------------
  Writing the requested band structure output:
  -------------------------------------------------------------------

  Integrating Hamiltonian matrix: batch-based integration.
  Time summed over all CPUs for integration: real work       21.263 s, elapsed       22.780 s

  Treating all   20 k-points in band plot segment #   1:


  "Band gap" along reciprocal space direction number:    1
  | Lowest unoccupied state:      -6.57448636 eV
  | Highest occupied state :      -6.58782875 eV
  | Energy difference      :       0.01334240 eV


  Treating all   20 k-points in band plot segment #   2:


  "Band gap" along reciprocal space direction number:    2
  | Lowest unoccupied state:      -6.54918768 eV
  | Highest occupied state :      -6.60309363 eV
  | Energy difference      :       0.05390595 eV


  Treating all   20 k-points in band plot segment #   3:


  "Band gap" along reciprocal space direction number:    3
  | Lowest unoccupied state:      -6.56672596 eV
  | Highest occupied state :      -6.59570509 eV
  | Energy difference      :       0.02897913 eV


  Treating all   20 k-points in band plot segment #   4:


  "Band gap" along reciprocal space direction number:    4
  | Lowest unoccupied state:      -6.55138279 eV
  | Highest occupied state :      -6.59734397 eV
  | Energy difference      :       0.04596117 eV


  Treating all   20 k-points in band plot segment #   5:


  "Band gap" along reciprocal space direction number:    5
  | Lowest unoccupied state:      -6.51222543 eV
  | Highest occupied state :      -6.59633384 eV
  | Energy difference      :       0.08410841 eV


  Treating all   20 k-points in band plot segment #   6:


  "Band gap" along reciprocal space direction number:    6
  | Lowest unoccupied state:      -5.89350161 eV
  | Highest occupied state :     -11.71159846 eV
  | Energy difference      :       5.81809685 eV


  Treating all   20 k-points in band plot segment #   7:


  "Band gap" along reciprocal space direction number:    7
  | Lowest unoccupied state:      -6.56672596 eV
  | Highest occupied state :      -6.59570509 eV
  | Energy difference      :       0.02897913 eV


  Treating all   20 k-points in band plot segment #   8:


  "Band gap" along reciprocal space direction number:    8
  | Lowest unoccupied state:      -6.53060716 eV
  | Highest occupied state :      -6.70914392 eV
  | Energy difference      :       0.17853676 eV


  Treating all   20 k-points in band plot segment #   9:


  "Band gap" along reciprocal space direction number:    9
  | Lowest unoccupied state:      -5.89350161 eV
  | Highest occupied state :     -11.71159846 eV
  | Energy difference      :       5.81809685 eV


  Treating all   20 k-points in band plot segment #  10:


  "Band gap" along reciprocal space direction number:   10
  | Lowest unoccupied state:      -5.97865533 eV
  | Highest occupied state :     -11.64274689 eV
  | Energy difference      :       5.66409156 eV

  "Band gap" of total set of bands:
  | Lowest unoccupied state:      -6.57448636 eV
  | Highest occupied state :      -6.58782875 eV
  | Energy difference      :       0.01334240 eV


------------------------------------------------------------------------------
  Final output of selected total energy values:

  The following output summarizes some interesting total energy values
  at the end of a run (AFTER all relaxation, molecular dynamics, etc.).

  | Total energy of the DFT / Hartree-Fock s.c.f. calculation      :       -1753056.602056467 eV
  | Final zero-broadening corrected energy (caution - metals only) :       -1753056.604045070 eV
  | For reference only, the value of 1 Hartree used in FHI-aims is :             27.211384500 eV

  Before relying on these values, please be sure to understand exactly which
  total energy value is referred to by a given number. Different objects may
  all carry the same name 'total energy'. Definitions:

  Total energy of the DFT / Hartree-Fock s.c.f. calculation:
  | Note that this energy does not include ANY quantities calculated after the
  | s.c.f. cycle, in particular not ANY RPA, MP2, etc. many-body perturbation terms.

  Final zero-broadening corrected energy:
  | For metallic systems only, a broadening of the occupation numbers at the Fermi
  | level can be extrapolated back to zero broadening by an electron-gas inspired
  | formula. For all systems that are not real metals, this value can be
  | meaningless and should be avoided.

------------------------------------------------------------------------------

------------------------------------------------------------
          Leaving FHI-aims.
          Date     :  20160710, Time     :  144443.155

          Computational steps:
          | Number of self-consistency cycles          :           19

          Detailed time accounting                     :  max(cpu_time)    wall_clock(cpu1)
          | Total time                                 :       75.641 s          77.198 s
          | Preparation time                           :        0.420 s           2.399 s
          | Grid partitioning                          :        0.128 s           0.135 s
          | Preloading free-atom quantities on grid    :        0.044 s           0.138 s
          | Free-atom superposition energy             :        0.064 s           0.067 s
          | Total time for integrations                :        7.600 s           7.584 s
          | Total time for solution of K.-S. equations :        5.156 s           5.128 s
          | Total time for density & force components  :       28.722 s          28.740 s
          | Total time for mixing & preconditioning    :        2.444 s           2.463 s
          | Total time for Hartree multipole update    :        0.088 s           0.063 s
          | Total time for Hartree multipole sum       :        9.285 s           9.285 s
          | Total time for total energy evaluation     :        0.088 s           0.086 s
          | Total time for scaled ZORA corrections     :        0.000 s           0.000 s

          Have a nice day.
------------------------------------------------------------
